WARNING: TZP basis will be used for Am instead of the requested DZP basis
WARNING: TZP basis will be used for Am instead of the requested DZP basis
WARNING: TZP basis will be used for Am instead of the requested DZP basis
WARNING: TZP basis will be used for Am instead of the requested DZP basis
NORMAL TERMINATION
NORMAL TERMINATION
NORMAL TERMINATION
NORMAL TERMINATION
(INPUT FILE)
ATOMS
Am 0.0 0.0 0.0
C  0.0 0.0 2.0
END

UNRESTRICTED

CHARGE 0 3

INTEGRATION 10.0 9.0

XC
GGA Becke Perdew
END

EXACTDENSITY

OCCUPATIONS Smearq=0

RELATIVISTIC Scalar ZORA

SCF
lshift 0.15
NoADIIS
END

SAVE TAPE21 TAPE13

FULLSCF

Fragments
Am t21.Am
C t21.C
End
end input

 *******************************************************************************
 *                                                                             *
 *  -------------------------------------                                      *
 *   Amsterdam Density Functional  (ADF)         2013.01   April 2, 2013       *
 *  -------------------------------------                                      *
 *                                               Build 201311242311            *
 *                                                                             *
 *                                                                             *
 *                              =================                              *
 *                              |               |                              *
 *                              |     A D F     |                              *
 *                              |               |                              *
 *                              =================                              *
 *                                                                             *
 *                                                                             *
 *   Online information and documentation:  http://www.scm.com                 *
 *   E-mail:  support@scm.com   info@scm.com                                   *
 *                                                                             *
 *   Scientific publications using ADF results must be properly referenced     *
 *   See the User Manuals (or the web site) for recommended citations          *
 *   The terms and conditions of the End User License Agreement apply to       *
 *   the use of ADF, http://www.scm.com/Sales/LicAgreement.html                *
 *                                                                             *
 ********************  x86_64_linux_intel / platform_mpi  **********************
 
 Licensed to: Dr. Hugh Couchman / Sharcnet / London / CANADA
 SCM User ID: u8844
  
 ADF 2013.01  RunTime: Mar01-2015 03:34:21  Nodes: 1  Procs: 1

 Temporary files are created in /scratch/kimt33/647907/kid_0.6oQjmv

 *** (NO TITLE) ***



 ===========================
 A T T A C H E D   F I L E S
 ===========================
  



 ===============================
 M O D E L   P A R A M E T E R S
 ===============================
  
 DENSITY FUNCTIONAL POTENTIAL (scf)
    LDA:                               VWN                                      
    Gradient Corrections:              Becke88 Perdew86                        == Not Default ==

 SPIN  (restricted / unrestr.)
    Molecule:                          UNrestricted                            == Not Default ==
    Fragments:                         Restricted                               

 OTHER ASPECTS
    Relativistic Corrections:          scalar (ZORA,SAPA)                      == Not Default ==

    Nuclear Charge Density Model:      Point Charge Nuclei                                                                                                                                                                                     
    Core Treatment:                    Frozen Orbital(s)                        

    Hyperfine or Zeeman Interaction:   ---                                      


 Fragment File(s)
 ----------------
 Am:
         file : t21.Am
         jobid: ADF 2013.01  RunTime: Mar01-2015 03:31:49  Nodes: 1  Procs: 1
         title: Americium (TZP, all electron)
 C:
         file : t21.C
         jobid: ADF 2013.01  RunTime: Mar01-2015 03:33:37  Nodes: 1  Procs: 1
         title: Carbon (DZP)



                                        ************************************
                                        *  R U N   T Y P E : SINGLE POINT  *
                                        ************************************
  



 ===============
 G E O M E T R Y  ***  Linear Molecule  ***
 ===============
  

 ATOMS
 =====                            X Y Z                    CHARGE
                                (Angstrom)             Nucl     +Core       At.Mass
                       --------------------------    ----------------       -------
    1  Am              0.0000    0.0000    0.0000     95.00     95.00      243.0000
    2  C               0.0000    0.0000    2.0000      6.00      6.00       12.0000


 FRAGMENTS
 =========                                     Atoms in this Fragment     Cart. coord.s (Angstrom)
                                               -------------------------------------------------------
    1  Am                                                1  Am           0.0000    0.0000    0.0000
    2  C                                                 2  C            0.0000    0.0000    2.0000


 Interatomic Distance Matrix (Angstrom)
 --------------------------------------

   1)     0.000
   2)     2.000   0.000



 =====================================
 S Y M M E T R Y ,   E L E C T R O N S
 =====================================
  
 Symmetry: C(LIN)

 Irreducible Representations, including subspecies
 -------------------------------------------------
 SIGMA
 PI:x  PI:y
 DELTA:x2-y2  DELTA:xy
 PHI:x3-3xy2  PHI:3x2y-y3


 Configuration of Valence Electrons
 ==================================
 ( determined in the SCF procedure )

 Total:   52 (Spin-A)  + 49 (Spin-B)

 Net Charge: 0 (Nuclei minus Electrons)
 Spin polar: 3 (Spin_A minus Spin_B electrons)

 Aufbau principle for MO occupations will be applied through SCF cycle no.      30
 Thereafter, the program will assign electrons to MOs that are spatially
 similar to the occupied MOs in a "reference" cycle ("KeepOrbitals").
 The reference cycle is always the PREVIOUS cycle: it will evolve with
 the SCF procedure.
1
 ***************************************************************************************************



                                      ****************************************
                                      *  B U I L D : (Fragments, Functions)  *
                                      ****************************************
  



 =======
 S F O s  ***  (Symmetrized Fragment Orbitals)  ***
 =======
  
 SFOs are linear combinations of (valence) Fragment Orbitals (FOs), such that the SFOs transform as the
 irreducible representations of the (molecular) symmetry group. Each SFO is therefore characterized by
 an irrep of the molecule and by a few (or only one) generating FOs.
 The SFOs constitute a symmetry-adapted basis for the Fock matrix. The MO eigenvector coefficients in
 this basis provide a direct interpretation of the MOs in terms of Frontier Orbital Theory.

 The SFOs are combined with auxiliary Core Functions (CFs) to ensure orthogonalization on the (frozen)
 Core Orbitals (COs). The Core-orthogonalized SFOs (CSFOs) constitute the true Fock basis.

 The FOs, and hence also the (C)SFOs are combinations of the elementary basis functions (BAS). The basis
 functions that participate in the description of the SFOs depend on the irrep. The indices of the
 involved functions are printed below for each irrep.
 (The complete list of primitive basis functions is printed in another section)

 Total nr. of (C)SFOs (summation over all irreps) :   147

 NOTE: a (C)SFO that is defined as a combination of more than one FO is usually NOT normalized.



                                       === SIGMA ===
 Nr. of SFOs :   49
 Cartesian basis functions that participate in this irrep (total number =    79) :
      1     2     3     4     5     6     7     8     9    10
     11    12    13    14    15    16    19    22    25    28
     31    34    37    40    43    46    49   156    55    61
     67    73    79    85    91    97   103    50    53    56
     59    62    65    68    71    74    77    80    83    86
     89    92    95    98   101   113   123   133   143   153
    106   111   116   121   126   131   136   141   146   151
    157   158   159   160   163   166   172   167   170

    SFO  (index         Fragment          Generating    Expansion in Fragment Orbitals
  indx  incl.CFs)   Occup   Orb.Energy   FragmentType  Coeff.   Orbital     on Fragment
 --------------------------------------------------------------------------------------
     1       1      2.000   -5322.214 au  Am            1.00      1 S               1
                        ( -144824.823 eV)
     2       2      2.000    -898.597 au  Am            1.00      2 S               1
                        (  -24452.079 eV)
     3       3      2.000    -224.381 au  Am            1.00      3 S               1
                        (   -6105.731 eV)
     4       4      2.000     -57.807 au  Am            1.00      4 S               1
                        (   -1573.016 eV)
     5       5      2.000     -12.935 au  Am            1.00      5 S               1
                        (    -351.967 eV)
     6       6      2.000      -1.859 au  Am            1.00      6 S               1
                        (     -50.596 eV)
     7       7      2.000      -0.147 au  Am            1.00      7 S               1
                        (      -3.989 eV)
     8       8       --         0.028 au  Am            1.00      8 S               1
                        (       0.751 eV)
     9       9       --         0.346 au  Am            1.00      9 S               1
                        (       9.402 eV)
    10      10       --         1.843 au  Am            1.00     10 S               1
                        (      50.163 eV)
    11      11       --         9.960 au  Am            1.00     11 S               1
                        (     271.029 eV)
    12      12       --        54.587 au  Am            1.00     12 S               1
                        (    1485.401 eV)
    13      13       --      1323.070 au  Am            1.00     13 S               1
                        (   36002.561 eV)
    14      14       --      8459.937 au  Am            1.00     14 S               1
                        (  230206.604 eV)
    15      15       --     37298.035 au  Am            1.00     15 S               1
                        ( 1014931.172 eV)
    16      16       --    189105.480 au  Am            1.00     16 S               1
                        ( 5145821.945 eV)
    17      17      2.000    -735.789 au  Am            1.00      1 P:z             1
                        (  -20021.828 eV)
    18      18      2.000    -181.053 au  Am            1.00      2 P:z             1
                        (   -4926.700 eV)
    19      19      2.000     -43.833 au  Am            1.00      3 P:z             1
                        (   -1192.766 eV)
    20      20      2.000      -8.557 au  Am            1.00      4 P:z             1
                        (    -232.854 eV)
    21      21      2.000      -0.842 au  Am            1.00      5 P:z             1
                        (     -22.924 eV)
    22      22       --        -0.013 au  Am            1.00      6 P:z             1
                        (      -0.345 eV)
    23      23       --         0.717 au  Am            1.00      7 P:z             1
                        (      19.524 eV)
    24      24       --         5.820 au  Am            1.00      8 P:z             1
                        (     158.381 eV)
    25      25       --        37.012 au  Am            1.00      9 P:z             1
                        (    1007.153 eV)
    26      26       --       201.796 au  Am            1.00     10 P:z             1
                        (    5491.159 eV)
    27      27       --      1902.411 au  Am            1.00     11 P:z             1
                        (   51767.225 eV)
    28      28       --     18951.729 au  Am            1.00     12 P:z             1
                        (  515702.791 eV)
    29      29      2.000    -145.235 au  Am            1.00      1 D:z2            1
                        (   -3952.033 eV)
    30      30      2.000     -30.330 au  Am            1.00      2 D:z2            1
                        (    -825.315 eV)
    31      31      2.000      -4.090 au  Am            1.00      3 D:z2            1
                        (    -111.299 eV)
    32      32       --        -0.048 au  Am            1.00      4 D:z2            1
                        (      -1.294 eV)
    33      33       --         0.063 au  Am            1.00      5 D:z2            1
                        (       1.720 eV)
    34      34       --         0.461 au  Am            1.00      6 D:z2            1
                        (      12.556 eV)
    35      35       --         3.638 au  Am            1.00      7 D:z2            1
                        (      99.004 eV)
    36      36       --        28.096 au  Am            1.00      8 D:z2            1
                        (     764.540 eV)
    37      37       --       237.500 au  Am            1.00      9 D:z2            1
                        (    6462.712 eV)
    38      38      2.000     -16.221 au  Am            1.00      1 F:z3            1
                        (    -441.402 eV)
    39      39      1.000      -0.095 au  Am            1.00      2 F:z3            1
                        (      -2.593 eV)
    40      40       --         0.510 au  Am            1.00      3 F:z3            1
                        (      13.889 eV)
    41      41       --         3.121 au  Am            1.00      4 F:z3            1
                        (      84.930 eV)
    42      42       --        26.256 au  Am            1.00      5 F:z3            1
                        (     714.471 eV)
    43      43      2.000     -10.076 au  C             1.00      1 S               2
                        (    -274.175 eV)
    44      44      2.000      -0.516 au  C             1.00      2 S               2
                        (     -14.050 eV)
    45      45       --         0.404 au  C             1.00      3 S               2
                        (      10.982 eV)
    46      46       --        21.705 au  C             1.00      4 S               2
                        (     590.618 eV)
    47      47      0.667      -0.202 au  C             1.00      1 P:z             2
                        (      -5.502 eV)
    48      48       --         0.443 au  C             1.00      2 P:z             2
                        (      12.063 eV)
    49      49       --         1.226 au  C             1.00      1 D:z2            2
                        (      33.367 eV)



                                       === PI:x ===
 Nr. of SFOs :   29
 Cartesian basis functions that participate in this irrep (total number =    39) :
     17    20    23    26    29    32    35    38    41    44
     47   154    52    58    64    70    76    82    88    94
    100   109   119   129   139   149   104   107   114   117
    124   127   134   137   144   147   161   164   169

    SFO  (index         Fragment          Generating    Expansion in Fragment Orbitals
  indx  incl.CFs)   Occup   Orb.Energy   FragmentType  Coeff.   Orbital     on Fragment
 --------------------------------------------------------------------------------------
     1       1      2.000    -735.789 au  Am            1.00      1 P:x             1
                        (  -20021.828 eV)
     2       2      2.000    -181.053 au  Am            1.00      2 P:x             1
                        (   -4926.700 eV)
     3       3      2.000     -43.833 au  Am            1.00      3 P:x             1
                        (   -1192.766 eV)
     4       4      2.000      -8.557 au  Am            1.00      4 P:x             1
                        (    -232.854 eV)
     5       5      2.000      -0.842 au  Am            1.00      5 P:x             1
                        (     -22.924 eV)
     6       6       --        -0.013 au  Am            1.00      6 P:x             1
                        (      -0.345 eV)
     7       7       --         0.717 au  Am            1.00      7 P:x             1
                        (      19.524 eV)
     8       8       --         5.820 au  Am            1.00      8 P:x             1
                        (     158.381 eV)
     9       9       --        37.012 au  Am            1.00      9 P:x             1
                        (    1007.153 eV)
    10      10       --       201.796 au  Am            1.00     10 P:x             1
                        (    5491.159 eV)
    11      11       --      1902.411 au  Am            1.00     11 P:x             1
                        (   51767.225 eV)
    12      12       --     18951.729 au  Am            1.00     12 P:x             1
                        (  515702.791 eV)
    13      13      2.000    -145.235 au  Am            1.00      1 D:xz            1
                        (   -3952.033 eV)
    14      14      2.000     -30.330 au  Am            1.00      2 D:xz            1
                        (    -825.315 eV)
    15      15      2.000      -4.090 au  Am            1.00      3 D:xz            1
                        (    -111.299 eV)
    16      16       --        -0.048 au  Am            1.00      4 D:xz            1
                        (      -1.294 eV)
    17      17       --         0.063 au  Am            1.00      5 D:xz            1
                        (       1.720 eV)
    18      18       --         0.461 au  Am            1.00      6 D:xz            1
                        (      12.556 eV)
    19      19       --         3.638 au  Am            1.00      7 D:xz            1
                        (      99.004 eV)
    20      20       --        28.096 au  Am            1.00      8 D:xz            1
                        (     764.540 eV)
    21      21       --       237.500 au  Am            1.00      9 D:xz            1
                        (    6462.712 eV)
    22      22      2.000     -16.221 au  Am            1.00      1 F:z2x           1
                        (    -441.402 eV)
    23      23      1.000      -0.095 au  Am            1.00      2 F:z2x           1
                        (      -2.593 eV)
    24      24       --         0.510 au  Am            1.00      3 F:z2x           1
                        (      13.889 eV)
    25      25       --         3.121 au  Am            1.00      4 F:z2x           1
                        (      84.930 eV)
    26      26       --        26.256 au  Am            1.00      5 F:z2x           1
                        (     714.471 eV)
    27      27      0.667      -0.202 au  C             1.00      1 P:x             2
                        (      -5.502 eV)
    28      28       --         0.443 au  C             1.00      2 P:x             2
                        (      12.063 eV)
    29      29       --         1.226 au  C             1.00      1 D:xz            2
                        (      33.367 eV)



                                       === PI:y ===
 Nr. of SFOs :   29
 Cartesian basis functions that participate in this irrep (total number =    39) :
     18    21    24    27    30    33    36    39    42    45
     48   155    54    60    66    72    78    84    90    96
    102   112   122   132   142   152   105   110   115   120
    125   130   135   140   145   150   162   165   171

    SFO  (index         Fragment          Generating    Expansion in Fragment Orbitals
  indx  incl.CFs)   Occup   Orb.Energy   FragmentType  Coeff.   Orbital     on Fragment
 --------------------------------------------------------------------------------------
     1       1      2.000    -735.789 au  Am            1.00      1 P:y             1
                        (  -20021.828 eV)
     2       2      2.000    -181.053 au  Am            1.00      2 P:y             1
                        (   -4926.700 eV)
     3       3      2.000     -43.833 au  Am            1.00      3 P:y             1
                        (   -1192.766 eV)
     4       4      2.000      -8.557 au  Am            1.00      4 P:y             1
                        (    -232.854 eV)
     5       5      2.000      -0.842 au  Am            1.00      5 P:y             1
                        (     -22.924 eV)
     6       6       --        -0.013 au  Am            1.00      6 P:y             1
                        (      -0.345 eV)
     7       7       --         0.717 au  Am            1.00      7 P:y             1
                        (      19.524 eV)
     8       8       --         5.820 au  Am            1.00      8 P:y             1
                        (     158.381 eV)
     9       9       --        37.012 au  Am            1.00      9 P:y             1
                        (    1007.153 eV)
    10      10       --       201.796 au  Am            1.00     10 P:y             1
                        (    5491.159 eV)
    11      11       --      1902.411 au  Am            1.00     11 P:y             1
                        (   51767.225 eV)
    12      12       --     18951.729 au  Am            1.00     12 P:y             1
                        (  515702.791 eV)
    13      13      2.000    -145.235 au  Am            1.00      1 D:yz            1
                        (   -3952.033 eV)
    14      14      2.000     -30.330 au  Am            1.00      2 D:yz            1
                        (    -825.315 eV)
    15      15      2.000      -4.090 au  Am            1.00      3 D:yz            1
                        (    -111.299 eV)
    16      16       --        -0.048 au  Am            1.00      4 D:yz            1
                        (      -1.294 eV)
    17      17       --         0.063 au  Am            1.00      5 D:yz            1
                        (       1.720 eV)
    18      18       --         0.461 au  Am            1.00      6 D:yz            1
                        (      12.556 eV)
    19      19       --         3.638 au  Am            1.00      7 D:yz            1
                        (      99.004 eV)
    20      20       --        28.096 au  Am            1.00      8 D:yz            1
                        (     764.540 eV)
    21      21       --       237.500 au  Am            1.00      9 D:yz            1
                        (    6462.712 eV)
    22      22      2.000     -16.221 au  Am            1.00      1 F:z2y           1
                        (    -441.402 eV)
    23      23      1.000      -0.095 au  Am            1.00      2 F:z2y           1
                        (      -2.593 eV)
    24      24       --         0.510 au  Am            1.00      3 F:z2y           1
                        (      13.889 eV)
    25      25       --         3.121 au  Am            1.00      4 F:z2y           1
                        (      84.930 eV)
    26      26       --        26.256 au  Am            1.00      5 F:z2y           1
                        (     714.471 eV)
    27      27      0.667      -0.202 au  C             1.00      1 P:y             2
                        (      -5.502 eV)
    28      28       --         0.443 au  C             1.00      2 P:y             2
                        (      12.063 eV)
    29      29       --         1.226 au  C             1.00      1 D:yz            2
                        (      33.367 eV)



                                       === DELTA:x2-y2 ===
 Nr. of SFOs :   15
 Cartesian basis functions that participate in this irrep (total number =    30) :
     50    53    56    59    62    65    68    71    74    77
     80    83    86    89    92    95    98   101   106   111
    116   121   126   131   136   141   146   151   167   170

    SFO  (index         Fragment          Generating    Expansion in Fragment Orbitals
  indx  incl.CFs)   Occup   Orb.Energy   FragmentType  Coeff.   Orbital     on Fragment
 --------------------------------------------------------------------------------------
     1       1      2.000    -145.235 au  Am            1.00      1 D:x2-y2         1
                        (   -3952.033 eV)
     2       2      2.000     -30.330 au  Am            1.00      2 D:x2-y2         1
                        (    -825.315 eV)
     3       3      2.000      -4.090 au  Am            1.00      3 D:x2-y2         1
                        (    -111.299 eV)
     4       4       --        -0.048 au  Am            1.00      4 D:x2-y2         1
                        (      -1.294 eV)
     5       5       --         0.063 au  Am            1.00      5 D:x2-y2         1
                        (       1.720 eV)
     6       6       --         0.461 au  Am            1.00      6 D:x2-y2         1
                        (      12.556 eV)
     7       7       --         3.638 au  Am            1.00      7 D:x2-y2         1
                        (      99.004 eV)
     8       8       --        28.096 au  Am            1.00      8 D:x2-y2         1
                        (     764.540 eV)
     9       9       --       237.500 au  Am            1.00      9 D:x2-y2         1
                        (    6462.712 eV)
    10      10      2.000     -16.221 au  Am            1.00      1 F:z             1
                        (    -441.402 eV)
    11      11      1.000      -0.095 au  Am            1.00      2 F:z             1
                        (      -2.593 eV)
    12      12       --         0.510 au  Am            1.00      3 F:z             1
                        (      13.889 eV)
    13      13       --         3.121 au  Am            1.00      4 F:z             1
                        (      84.930 eV)
    14      14       --        26.256 au  Am            1.00      5 F:z             1
                        (     714.471 eV)
    15      15       --         1.226 au  C             1.00      1 D:x2-y2         2
                        (      33.367 eV)



                                       === DELTA:xy ===
 Nr. of SFOs :   15
 Cartesian basis functions that participate in this irrep (total number =    15) :
     51    57    63    69    75    81    87    93    99   108
    118   128   138   148   168

    SFO  (index         Fragment          Generating    Expansion in Fragment Orbitals
  indx  incl.CFs)   Occup   Orb.Energy   FragmentType  Coeff.   Orbital     on Fragment
 --------------------------------------------------------------------------------------
     1       1      2.000    -145.235 au  Am            1.00      1 D:xy            1
                        (   -3952.033 eV)
     2       2      2.000     -30.330 au  Am            1.00      2 D:xy            1
                        (    -825.315 eV)
     3       3      2.000      -4.090 au  Am            1.00      3 D:xy            1
                        (    -111.299 eV)
     4       4       --        -0.048 au  Am            1.00      4 D:xy            1
                        (      -1.294 eV)
     5       5       --         0.063 au  Am            1.00      5 D:xy            1
                        (       1.720 eV)
     6       6       --         0.461 au  Am            1.00      6 D:xy            1
                        (      12.556 eV)
     7       7       --         3.638 au  Am            1.00      7 D:xy            1
                        (      99.004 eV)
     8       8       --        28.096 au  Am            1.00      8 D:xy            1
                        (     764.540 eV)
     9       9       --       237.500 au  Am            1.00      9 D:xy            1
                        (    6462.712 eV)
    10      10      2.000     -16.221 au  Am            1.00      1 F:xyz           1
                        (    -441.402 eV)
    11      11      1.000      -0.095 au  Am            1.00      2 F:xyz           1
                        (      -2.593 eV)
    12      12       --         0.510 au  Am            1.00      3 F:xyz           1
                        (      13.889 eV)
    13      13       --         3.121 au  Am            1.00      4 F:xyz           1
                        (      84.930 eV)
    14      14       --        26.256 au  Am            1.00      5 F:xyz           1
                        (     714.471 eV)
    15      15       --         1.226 au  C             1.00      1 D:xy            2
                        (      33.367 eV)



                                       === PHI:x3-3xy2 ===
 Nr. of SFOs :    5
 Cartesian basis functions that participate in this irrep (total number =    10) :
    104   107   114   117   124   127   134   137   144   147

    SFO  (index         Fragment          Generating    Expansion in Fragment Orbitals
  indx  incl.CFs)   Occup   Orb.Energy   FragmentType  Coeff.   Orbital     on Fragment
 --------------------------------------------------------------------------------------
     1       1      2.000     -16.221 au  Am            1.00      1 F:x             1
                        (    -441.402 eV)
     2       2      1.000      -0.095 au  Am            1.00      2 F:x             1
                        (      -2.593 eV)
     3       3       --         0.510 au  Am            1.00      3 F:x             1
                        (      13.889 eV)
     4       4       --         3.121 au  Am            1.00      4 F:x             1
                        (      84.930 eV)
     5       5       --        26.256 au  Am            1.00      5 F:x             1
                        (     714.471 eV)



                                       === PHI:3x2y-y3 ===
 Nr. of SFOs :    5
 Cartesian basis functions that participate in this irrep (total number =    10) :
    105   110   115   120   125   130   135   140   145   150

    SFO  (index         Fragment          Generating    Expansion in Fragment Orbitals
  indx  incl.CFs)   Occup   Orb.Energy   FragmentType  Coeff.   Orbital     on Fragment
 --------------------------------------------------------------------------------------
     1       1      2.000     -16.221 au  Am            1.00      1 F:y             1
                        (    -441.402 eV)
     2       2      1.000      -0.095 au  Am            1.00      2 F:y             1
                        (      -2.593 eV)
     3       3       --         0.510 au  Am            1.00      3 F:y             1
                        (      13.889 eV)
     4       4       --         3.121 au  Am            1.00      4 F:y             1
                        (      84.930 eV)
     5       5       --        26.256 au  Am            1.00      5 F:y             1
                        (     714.471 eV)



 ================================
 (Slater-type)  F U N C T I O N S  ***  (Basis and Fit)  ***
 ================================
  

 Atom Type    1  (Am)
 ==============

 Valence Basis Sets:  42
 -----------------------
   1 S 1135.000000
   1 S  262.000000
   1 S  114.300000
   2 S  146.000000
   2 S   49.500000
   3 S   62.950000
   3 S   27.150000
   4 S   16.600000
   4 S   11.650000
   5 S   11.250000
   5 S    7.800000
   6 S    5.350000
   6 S    3.500000
   7 S    2.500000
   7 S    1.600000
   7 S    1.040000
   2 P  262.000000
   2 P   90.400000
   2 P   46.050000
   3 P   26.150000
   3 P   18.750000
   4 P   18.900000
   4 P   13.050000
   5 P    9.250000
   5 P    6.400000
   6 P    4.250000
   6 P    2.600000
   3 D   35.800000
   3 D   23.000000
   4 D   16.300000
   4 D   11.300000
   5 D    7.850000
   5 D    5.000000
   6 D    3.000000
   6 D    1.600000
   6 D    0.870000
   4 F   18.450000
   4 F   10.300000
   5 F    6.600000
   5 F    3.550000
   5 F    1.750000
   7 P    1.600000

 Charge Fitting Sets (for the computation of the Coulomb Potential): 124
 -----------------------------------------------------------------------
   1 S32000.000000
   1 S24122.750000
   1 S18184.595000
   1 S13708.201000
   1 S10333.734000
   1 S 7789.940000
   1 S 5872.337000
   1 S 4426.778000
   1 S 3337.065000
   1 S 2515.599000
   1 S 1896.349000
   1 S 1429.536000
   1 S 1077.636000
   1 S  812.360000
   1 S  612.386000
   1 S  461.639000
   1 S  348.000000
   1 S  221.868000
   2 S  261.354000
   2 S  184.527000
   3 S  190.775000
   3 S  142.184000
   3 S  105.970000
   4 S  104.225000
   4 S   80.431000
   4 S   62.069000
   5 S   59.569000
   5 S   47.124000
   5 S   37.279000
   6 S   35.295000
   6 S   28.451000
   6 S   22.935000
   7 S   21.539000
   7 S   17.624000
   7 S   14.420000
   8 S   13.475000
   8 S   11.161000
   8 S    9.244000
   8 S    7.656000
   9 S    7.132000
   9 S    5.968000
   9 S    4.994000
   9 S    4.178000
   9 S    3.496000
   9 S    2.926000
   9 S    2.448000
   9 S    2.048000
   9 S    1.714000
   9 S    1.434000
   9 S    1.200000
   2 P  230.700000
   2 P  146.204000
   3 P  136.529000
   4 P  123.159000
   4 P   87.721000
   5 P   77.973000
   5 P   57.373000
   6 P   50.661000
   6 P   38.208000
   7 P   33.645000
   7 P   25.875000
   8 P   22.769000
   8 P   17.793000
   8 P   13.904000
   9 P   12.239000
   9 P    9.693000
   9 P    7.676000
   9 P    6.079000
   9 P    4.815000
   9 P    3.813000
   9 P    3.020000
   9 P    2.392000
   9 P    1.894000
   9 P    1.500000
   3 D  201.600000
   3 D  125.991000
   4 D  104.935000
   5 D   86.880000
   6 D   71.912000
   6 D   50.969000
   7 D   42.279000
   7 D   30.690000
   8 D   25.538000
   8 D   18.904000
   8 D   13.992000
   9 D   11.686000
   9 D    8.792000
   9 D    6.615000
   9 D    4.977000
   9 D    3.745000
   9 D    2.817000
   9 D    2.120000
   9 D    1.595000
   9 D    1.200000
   4 F  193.250000
   5 F  151.673000
   6 F  119.576000
   6 F   80.871000
   7 F   64.128000
   7 F   44.565000
   8 F   35.555000
   8 F   25.263000
   8 F   17.950000
   9 F   14.408000
   9 F   10.429000
   9 F    7.549000
   9 F    5.464000
   9 F    3.955000
   9 F    2.863000
   9 F    2.072000
   9 F    1.500000
   5 G   75.950000
   6 G   56.928000
   6 G   36.669000
   7 G   27.750000
   7 G   18.430000
   8 G   14.076000
   8 G    9.585000
   9 G    7.383000
   9 G    5.134000
   9 G    3.570000
   9 G    2.482000
   9 G    1.726000
   9 G    1.200000

 Atom Type    2  (C)
 ==============

 Valence Basis Sets:   7
 -----------------------
   1 S    7.680000
   1 S    5.000000
   2 S    1.980000
   2 S    1.240000
   2 P    2.200000
   2 P    0.960000
   3 D    2.200000

 Charge Fitting Sets (for the computation of the Coulomb Potential):  32
 -----------------------------------------------------------------------
   1 S   22.800000
   1 S   17.350000
   1 S   13.200000
   1 S    8.790000
   2 S   10.830000
   2 S    7.910000
   2 S    5.780000
   2 S    4.220000
   3 S    4.510000
   3 S    3.460000
   3 S    2.650000
   3 S    2.030000
   3 S    1.560000
   2 P   11.750000
   2 P    7.920000
   2 P    5.330000
   3 P    5.270000
   3 P    3.780000
   3 P    2.710000
   3 P    1.940000
   3 D   10.300000
   3 D    6.750000
   3 D    4.430000
   4 D    3.860000
   4 D    2.660000
   4 F   10.600000
   4 F    6.560000
   4 F    4.060000
   5 F    3.160000
   5 G    9.150000
   5 G    5.040000
   5 G    2.780000


 BAS: List of all Elementary Cartesian Basis Functions
 =====================================================

 The numbering in the list below (to the right of the function characteristics) is referred
 to in print-outs of MO eigenvectors and Mulliken populations in the BAS representation
 (as contrasted to the SFO representation).

 Notes:
 1. The functions are characterized by a polynomial prefactor (powers of x,y,z and r) and
    an exponential decay factor alpha.
 2. Since the basis sets are specific for an atom TYPE, the individual functions occur on
    all atoms of that type.
 3. The word 'Core' in the left margin signals that it is a Core Function (CF) : not a
    degree of freedom in the valence set, but only used to ensure orthogonalization of
    the other valence basis functions on the frozen Core Orbitals.


 (power of) X  Y  Z  R     Alpha  on Atom
            ==========     =====     ==========

 Am                                   1
                                  ---------------------------------------------------------------------------
            0  0  0  0  1135.000      1
            0  0  0  0   262.000      2
            0  0  0  0   114.300      3
            0  0  0  1   146.000      4
            0  0  0  1    49.500      5
            0  0  0  2    62.950      6
            0  0  0  2    27.150      7
            0  0  0  3    16.600      8
            0  0  0  3    11.650      9
            0  0  0  4    11.250     10
            0  0  0  4     7.800     11
            0  0  0  5     5.350     12
            0  0  0  5     3.500     13
            0  0  0  6     2.500     14
            0  0  0  6     1.600     15
            0  0  0  6     1.040     16
            1  0  0  0   262.000     17
            0  1  0  0   262.000     18
            0  0  1  0   262.000     19
            1  0  0  0    90.400     20
            0  1  0  0    90.400     21
            0  0  1  0    90.400     22
            1  0  0  0    46.050     23
            0  1  0  0    46.050     24
            0  0  1  0    46.050     25
            1  0  0  1    26.150     26
            0  1  0  1    26.150     27
            0  0  1  1    26.150     28
            1  0  0  1    18.750     29
            0  1  0  1    18.750     30
            0  0  1  1    18.750     31
            1  0  0  2    18.900     32
            0  1  0  2    18.900     33
            0  0  1  2    18.900     34
            1  0  0  2    13.050     35
            0  1  0  2    13.050     36
            0  0  1  2    13.050     37
            1  0  0  3     9.250     38
            0  1  0  3     9.250     39
            0  0  1  3     9.250     40
            1  0  0  3     6.400     41
            0  1  0  3     6.400     42
            0  0  1  3     6.400     43
            1  0  0  4     4.250     44
            0  1  0  4     4.250     45
            0  0  1  4     4.250     46
            1  0  0  4     2.600     47
            0  1  0  4     2.600     48
            0  0  1  4     2.600     49
            2  0  0  0    35.800     50
            1  1  0  0    35.800     51
            1  0  1  0    35.800     52
            0  2  0  0    35.800     53
            0  1  1  0    35.800     54
            0  0  2  0    35.800     55
            2  0  0  0    23.000     56
            1  1  0  0    23.000     57
            1  0  1  0    23.000     58
            0  2  0  0    23.000     59
            0  1  1  0    23.000     60
            0  0  2  0    23.000     61
            2  0  0  1    16.300     62
            1  1  0  1    16.300     63
            1  0  1  1    16.300     64
            0  2  0  1    16.300     65
            0  1  1  1    16.300     66
            0  0  2  1    16.300     67
            2  0  0  1    11.300     68
            1  1  0  1    11.300     69
            1  0  1  1    11.300     70
            0  2  0  1    11.300     71
            0  1  1  1    11.300     72
            0  0  2  1    11.300     73
            2  0  0  2     7.850     74
            1  1  0  2     7.850     75
            1  0  1  2     7.850     76
            0  2  0  2     7.850     77
            0  1  1  2     7.850     78
            0  0  2  2     7.850     79
            2  0  0  2     5.000     80
            1  1  0  2     5.000     81
            1  0  1  2     5.000     82
            0  2  0  2     5.000     83
            0  1  1  2     5.000     84
            0  0  2  2     5.000     85
            2  0  0  3     3.000     86
            1  1  0  3     3.000     87
            1  0  1  3     3.000     88
            0  2  0  3     3.000     89
            0  1  1  3     3.000     90
            0  0  2  3     3.000     91
            2  0  0  3     1.600     92
            1  1  0  3     1.600     93
            1  0  1  3     1.600     94
            0  2  0  3     1.600     95
            0  1  1  3     1.600     96
            0  0  2  3     1.600     97
            2  0  0  3     0.870     98
            1  1  0  3     0.870     99
            1  0  1  3     0.870    100
            0  2  0  3     0.870    101
            0  1  1  3     0.870    102
            0  0  2  3     0.870    103
            3  0  0  0    18.450    104
            2  1  0  0    18.450    105
            2  0  1  0    18.450    106
            1  2  0  0    18.450    107
            1  1  1  0    18.450    108
            1  0  2  0    18.450    109
            0  3  0  0    18.450    110
            0  2  1  0    18.450    111
            0  1  2  0    18.450    112
            0  0  3  0    18.450    113
            3  0  0  0    10.300    114
            2  1  0  0    10.300    115
            2  0  1  0    10.300    116
            1  2  0  0    10.300    117
            1  1  1  0    10.300    118
            1  0  2  0    10.300    119
            0  3  0  0    10.300    120
            0  2  1  0    10.300    121
            0  1  2  0    10.300    122
            0  0  3  0    10.300    123
            3  0  0  1     6.600    124
            2  1  0  1     6.600    125
            2  0  1  1     6.600    126
            1  2  0  1     6.600    127
            1  1  1  1     6.600    128
            1  0  2  1     6.600    129
            0  3  0  1     6.600    130
            0  2  1  1     6.600    131
            0  1  2  1     6.600    132
            0  0  3  1     6.600    133
            3  0  0  1     3.550    134
            2  1  0  1     3.550    135
            2  0  1  1     3.550    136
            1  2  0  1     3.550    137
            1  1  1  1     3.550    138
            1  0  2  1     3.550    139
            0  3  0  1     3.550    140
            0  2  1  1     3.550    141
            0  1  2  1     3.550    142
            0  0  3  1     3.550    143
            3  0  0  1     1.750    144
            2  1  0  1     1.750    145
            2  0  1  1     1.750    146
            1  2  0  1     1.750    147
            1  1  1  1     1.750    148
            1  0  2  1     1.750    149
            0  3  0  1     1.750    150
            0  2  1  1     1.750    151
            0  1  2  1     1.750    152
            0  0  3  1     1.750    153
            1  0  0  5     1.600    154
            0  1  0  5     1.600    155
            0  0  1  5     1.600    156

 C                                    2
                                  ---------------------------------------------------------------------------
            0  0  0  0     7.680    157
            0  0  0  0     5.000    158
            0  0  0  1     1.980    159
            0  0  0  1     1.240    160
            1  0  0  0     2.200    161
            0  1  0  0     2.200    162
            0  0  1  0     2.200    163
            1  0  0  0     0.960    164
            0  1  0  0     0.960    165
            0  0  1  0     0.960    166
            2  0  0  0     2.200    167
            1  1  0  0     2.200    168
            1  0  1  0     2.200    169
            0  2  0  0     2.200    170
            0  1  1  0     2.200    171
            0  0  2  0     2.200    172

 Total number of charge fitting functions (nprimf)       756
 Total number of Cartesian basis functions (naos)        172
 Total number of Cartesian core functions  (ncos)          0

1
 ***************************************************************************************************



                                              ***********************
                                              *  T E C H N I C A L  *
                                              ***********************
  



 =============================================================
 P A R A L L E L I Z A T I O N  and  V E C T O R I Z A T I O N
 =============================================================
  
 Nr of parallel processes:                                1
 Maximum vector length in NumInt loops:                 128



 ===============
 I O  vs.  C P U  ***  (store numerical data on disk or recalculate)  ***
 ===============
  
 Basis functions:   recalculate when needed
 Fit functions:     recalculate when needed

 IO buffersize (Mb):                                     64.000000



 =====================
 S C F   U P D A T E S
 =====================
  
 Max. nr. of cycles:                               300
 Convergence criterion:                              0.0000010000
   secondary criterion:                              0.0010000000

 Mix parameter (when DIIS does not apply):           0.2000000000


 DIIS (Direct Inversion in Iteration Space)
    Replace damping when SCF Error is below:         0.5000000000
    Apply anyway after SCF cycle:
                                                     5
    (Max.) nr. of expansion vectors:                10

    Upperbound on expansion coefficients:            5.0000000000
    (when exceeded, IterationSpace is re-built)
    2nd Upperbound on coefficients:                 25.0000000000
    (when exceeded, simple damping will be used)

 Level Shifting parameter (for the virtuals):        0.1500000000 (hartree), applies:
   until the SCF error drops below:                  0.0000000000
   but not before SCF cycle:                         1
 Automatic ElectronSmearing (in case of problematic SCF convergence) disabled



 =================
 P R E C I S I O N  ***  (General: NumInt, NeglectFunctionTails, ...)  ***
 =================
  

 NumInt:           Target precision:                10.0000000000
 -------           Initial precision:               10.0000000000
                   Min. precision (optimization):    9.0000000000

 Neglect Functions:          Basis functions:        0.1000000000E-11
 ------------------          Fit functions:          0.1000000000E-11



 ===========================
 L I N E A R   S C A L I N G
 ===========================
  

 Cut-off radii density fit:                        0.1000000000E-13
 Overlap cut-off criterion AO matrix elements:     0.1000000000E-11
 Cut-offs for Coulomb potential and fitted density:0.1000000000E-13
 Cut-off criterion for Coulomb multipole terms:    0.1000000000E-13
 Progressive Convergence parameter:                 0.000000000    
1
 ***************************************************************************************************



                                            ***************************
                                            *  C O M P U T A T I O N  *
                                            ***************************
  

 Number of elements of the density matrix on this node (used, total):     14878     14878



 ====================================================
 Numerical Integration : Voronoi Polyhedra (Te Velde)
 ====================================================
  
 General Accuracy Parameter :                         10.00

 Symmetry used in the points section:  C(LIN)


 Summary of the Symmetry Unique Points:
 --------------------------------------
    Nr. of used Symmetry Operators                     1

    Points in the Atomic Spheres                     938
    Points in the Atomic Polyhedra                   948
    Points in the Outer Region                       777
    ----------------------------------------------------
    Total                                           2663

    Sum of Weights                                424331.927012

 Total nr. of points:       2663
 Nr. of blocks:               21
 Block length:               127
 Nr. of dummy points:          4


 Test of Precision of the Numerical Integration Grid
 ===================================================

 Integral of the Total Core Density:                   0.00000000000000



 =====
 S C F
 =====
  

 CYCLE    1
 ***** SPIN 1 *****
 orbitals (Q,E):
 ---------------
 SIGMA :10...29      ( 1.00   -16.1845)  ( 1.00   -12.9232)  ( 1.00   -10.1415)  ( 1.00    -8.5564)
                     ( 1.00    -4.0966)  ( 1.00    -1.8731)  ( 1.00    -0.9205)  ( 1.00    -0.5565)
                     ( 1.00    -0.2791)  ( 1.00    -0.1394)  ( 0.00    -0.0941)  ( 0.00    -0.0239)
                     ( 0.00     0.0270)  ( 0.00     0.0589)  ( 0.00     0.1688)  ( 0.00     0.3317)
                     ( 0.00     0.3983)  ( 0.00     0.4775)  ( 0.00     0.7229)  ( 0.00     0.9960)
 PI :2...21          ( 2.00  -179.2446)  ( 2.00  -143.8934)  ( 2.00   -43.6827)  ( 2.00   -30.2414)
                     ( 2.00   -16.1844)  ( 2.00    -8.5539)  ( 2.00    -4.0950)  ( 2.00    -0.8530)
                     ( 2.00    -0.2968)  ( 1.00    -0.1014)  ( 0.00    -0.0284)  ( 0.00     0.0211)
                     ( 0.00     0.0520)  ( 0.00     0.4408)  ( 0.00     0.5576)  ( 0.00     0.6110)
                     ( 0.00     0.7238)  ( 0.00     1.6030)  ( 0.00     3.2064)  ( 0.00     3.6669)
 DELTA :1...15       ( 2.00  -143.8933)  ( 2.00   -30.2411)  ( 2.00   -16.1842)  ( 2.00    -4.0927)
                     ( 2.00    -0.1067)  ( 0.00    -0.0544)  ( 0.00     0.0610)  ( 0.00     0.4533)
                     ( 0.00     0.4780)  ( 0.00     1.2676)  ( 0.00     3.1207)  ( 0.00     3.6294)
                     ( 0.00    26.1476)  ( 0.00    27.9691)  ( 0.00   231.7386)
 PHI :1...5          ( 2.00   -16.1839)  ( 0.00    -0.1009)  ( 0.00     0.5051)  ( 0.00     3.1137)
                     ( 0.00    26.1396)
 ***** SPIN 2 *****
 orbitals (Q,E):
 ---------------
 SIGMA :10...29      ( 1.00   -16.1845)  ( 1.00   -12.9232)  ( 1.00   -10.1415)  ( 1.00    -8.5564)
                     ( 1.00    -4.0966)  ( 1.00    -1.8731)  ( 1.00    -0.9205)  ( 1.00    -0.5565)
                     ( 1.00    -0.2791)  ( 1.00    -0.1394)  ( 0.00    -0.0941)  ( 0.00    -0.0239)
                     ( 0.00     0.0270)  ( 0.00     0.0589)  ( 0.00     0.1688)  ( 0.00     0.3317)
                     ( 0.00     0.3983)  ( 0.00     0.4775)  ( 0.00     0.7229)  ( 0.00     0.9960)
 PI :1...20          ( 2.00  -714.6920)  ( 2.00  -179.2446)  ( 2.00  -143.8934)  ( 2.00   -43.6827)
                     ( 2.00   -30.2414)  ( 2.00   -16.1844)  ( 2.00    -8.5539)  ( 2.00    -4.0950)
                     ( 2.00    -0.8530)  ( 2.00    -0.2968)  ( 0.00    -0.1014)  ( 0.00    -0.0284)
                     ( 0.00     0.0211)  ( 0.00     0.0520)  ( 0.00     0.4408)  ( 0.00     0.5576)
                     ( 0.00     0.6110)  ( 0.00     0.7238)  ( 0.00     1.6030)  ( 0.00     3.2064)
 DELTA :1...14       ( 2.00  -143.8933)  ( 2.00   -30.2411)  ( 2.00   -16.1842)  ( 2.00    -4.0927)
                     ( 0.00    -0.1067)  ( 0.00    -0.0544)  ( 0.00     0.0610)  ( 0.00     0.4533)
                     ( 0.00     0.4780)  ( 0.00     1.2676)  ( 0.00     3.1207)  ( 0.00     3.6294)
                     ( 0.00    26.1476)  ( 0.00    27.9691)
 PHI :1...5          ( 2.00   -16.1839)  ( 0.00    -0.1009)  ( 0.00     0.5051)  ( 0.00     3.1137)
                     ( 0.00    26.1396)
  
 Spin polar: 3 (Spin_A minus Spin_B electrons)

 CYCLE    2
 d-Pmat  mean:  0.44E-01
 imax=    127:  0.38E+00
 d-Pmat  mean:  0.37E-01
 imax=    132:  0.28E+00
 ***** SPIN 1 *****
 orbitals (Q,E):
 ---------------
 SIGMA :9...28       ( 1.00   -30.6911)  ( 1.00   -16.6370)  ( 1.00   -13.3328)  ( 1.00    -9.8016)
                     ( 1.00    -8.9424)  ( 1.00    -4.4614)  ( 1.00    -2.1296)  ( 1.00    -1.0733)
                     ( 1.00    -0.4429)  ( 1.00    -0.2956)  ( 0.00    -0.3250)  ( 0.00    -0.2592)
                     ( 0.00    -0.0602)  ( 0.00     0.0100)  ( 0.00     0.0675)  ( 0.00     0.1544)
                     ( 0.00     0.2838)  ( 0.00     0.3524)  ( 0.00     0.4637)  ( 0.00     0.7190)
 PI :1...20          ( 2.00  -715.1766)  ( 2.00  -179.7334)  ( 2.00  -144.3821)  ( 2.00   -44.1396)
                     ( 2.00   -30.6919)  ( 2.00   -16.6375)  ( 2.00    -8.9542)  ( 2.00    -4.4642)
                     ( 2.00    -1.0615)  ( 2.00    -0.3894)  ( 0.00    -0.3259)  ( 0.00    -0.0920)
                     ( 0.00     0.0141)  ( 0.00     0.0439)  ( 0.00     0.3570)  ( 0.00     0.5539)
                     ( 0.00     0.5751)  ( 0.00     0.7464)  ( 0.00     1.7565)  ( 0.00     2.9506)
 DELTA :1...15       ( 2.00  -144.3844)  ( 2.00   -30.6977)  ( 2.00   -16.6396)  ( 2.00    -4.4726)
                     ( 2.00    -0.3886)  ( 0.00    -0.1535)  ( 0.00     0.0383)  ( 0.00     0.3593)
                     ( 0.00     0.4015)  ( 0.00     1.4391)  ( 0.00     2.8566)  ( 0.00     3.3578)
                     ( 0.00    25.7220)  ( 0.00    27.5541)  ( 0.00   231.2675)
 PHI :1...5          ( 2.00   -16.6441)  ( 2.00    -0.2468)  ( 0.00     0.4107)  ( 0.00     2.8381)
                     ( 0.00    25.7084)
 ***** SPIN 2 *****
 orbitals (Q,E):
 ---------------
 SIGMA :9...28       ( 1.00   -30.6903)  ( 1.00   -16.6354)  ( 1.00   -13.3257)  ( 1.00    -9.8016)
                     ( 1.00    -8.9317)  ( 1.00    -4.4538)  ( 1.00    -2.1178)  ( 1.00    -1.0632)
                     ( 1.00    -0.4405)  ( 1.00    -0.2887)  ( 0.00    -0.3232)  ( 0.00    -0.2565)
                     ( 0.00    -0.0588)  ( 0.00     0.0106)  ( 0.00     0.0680)  ( 0.00     0.1559)
                     ( 0.00     0.2861)  ( 0.00     0.3544)  ( 0.00     0.4661)  ( 0.00     0.7223)
 PI :1...20          ( 2.00  -715.1765)  ( 2.00  -179.7313)  ( 2.00  -144.3797)  ( 2.00   -44.1384)
                     ( 2.00   -30.6901)  ( 2.00   -16.6353)  ( 2.00    -8.9454)  ( 2.00    -4.4486)
                     ( 2.00    -1.0530)  ( 2.00    -0.2655)  ( 0.00    -0.2877)  ( 0.00    -0.0883)
                     ( 0.00     0.0174)  ( 0.00     0.0450)  ( 0.00     0.3621)  ( 0.00     0.5575)
                     ( 0.00     0.5794)  ( 0.00     0.7470)  ( 0.00     1.7575)  ( 0.00     2.9593)
 DELTA :1...14       ( 2.00  -144.3830)  ( 2.00   -30.6966)  ( 2.00   -16.6368)  ( 2.00    -4.4630)
                     ( 0.00    -0.3760)  ( 0.00    -0.1482)  ( 0.00     0.0388)  ( 0.00     0.3621)
                     ( 0.00     0.4074)  ( 0.00     1.4397)  ( 0.00     2.8676)  ( 0.00     3.3656)
                     ( 0.00    25.7277)  ( 0.00    27.5582)
 PHI :1...5          ( 2.00   -16.6425)  ( 1.00    -0.2377)  ( 0.00     0.4131)  ( 0.00     2.8442)
                     ( 0.00    25.7116)
  
 Spin polar: 3 (Spin_A minus Spin_B electrons)

 CYCLE    3
 d-Pmat  mean:  0.80E-02
 imax=    159: -0.13E+00
 d-Pmat  mean:  0.15E-01
 imax=    137:  0.16E+00
 ***** SPIN 1 *****
 orbitals (Q,E):
 ---------------
 SIGMA :9...28       ( 1.00   -30.4336)  ( 1.00   -16.3798)  ( 1.00   -13.1496)  ( 1.00    -9.4201)
                     ( 1.00    -8.7521)  ( 1.00    -4.2884)  ( 1.00    -2.0477)  ( 1.00    -0.9693)
                     ( 1.00    -0.2552)  ( 1.00    -0.2229)  ( 0.00    -0.1882)  ( 0.00    -0.1042)
                     ( 0.00     0.0108)  ( 0.00     0.0307)  ( 0.00     0.1330)  ( 0.00     0.2544)
                     ( 0.00     0.2991)  ( 0.00     0.4168)  ( 0.00     0.5521)  ( 0.00     0.8376)
 PI :1...20          ( 2.00  -714.8665)  ( 2.00  -179.4485)  ( 2.00  -144.0877)  ( 2.00   -43.8977)
                     ( 2.00   -30.4415)  ( 2.00   -16.3842)  ( 2.00    -8.7994)  ( 2.00    -4.3151)
                     ( 2.00    -1.0091)  ( 2.00    -0.2806)  ( 0.00    -0.1249)  ( 0.00    -0.0416)
                     ( 0.00     0.0568)  ( 0.00     0.1838)  ( 0.00     0.3964)  ( 0.00     0.6087)
                     ( 0.00     0.6387)  ( 0.00     0.9593)  ( 0.00     1.9861)  ( 0.00     3.0700)
 DELTA :1...15       ( 2.00  -144.0955)  ( 2.00   -30.4611)  ( 2.00   -16.3947)  ( 2.00    -4.3422)
                     ( 2.00    -0.2984)  ( 0.00    -0.1256)  ( 0.00     0.0465)  ( 0.00     0.3821)
                     ( 0.00     0.4548)  ( 0.00     1.6705)  ( 0.00     2.9571)  ( 0.00     3.4422)
                     ( 0.00    25.9394)  ( 0.00    27.7470)  ( 0.00   231.5382)
 PHI :1...5          ( 2.00   -16.4090)  ( 2.00    -0.3125)  ( 0.00     0.4353)  ( 0.00     2.9234)
                     ( 0.00    25.9159)
 ***** SPIN 2 *****
 orbitals (Q,E):
 ---------------
 SIGMA :9...28       ( 1.00   -30.4292)  ( 1.00   -16.3706)  ( 1.00   -13.1103)  ( 1.00    -9.4216)
                     ( 1.00    -8.7005)  ( 1.00    -4.2502)  ( 1.00    -1.9876)  ( 1.00    -0.9229)
                     ( 1.00    -0.2291)  ( 1.00    -0.2035)  ( 0.00    -0.1783)  ( 0.00    -0.0980)
                     ( 0.00     0.0135)  ( 0.00     0.0322)  ( 0.00     0.1350)  ( 0.00     0.2555)
                     ( 0.00     0.3100)  ( 0.00     0.4271)  ( 0.00     0.5637)  ( 0.00     0.8491)
 PI :1...20          ( 2.00  -714.8661)  ( 2.00  -179.4356)  ( 2.00  -144.0750)  ( 2.00   -43.8910)
                     ( 2.00   -30.4321)  ( 2.00   -16.3728)  ( 2.00    -8.7483)  ( 2.00    -4.2363)
                     ( 2.00    -0.9648)  ( 1.00    -0.1989)  ( 0.00    -0.1202)  ( 0.00    -0.0407)
                     ( 0.00     0.0603)  ( 0.00     0.1811)  ( 0.00     0.4187)  ( 0.00     0.6223)
                     ( 0.00     0.6575)  ( 0.00     0.9516)  ( 0.00     1.9825)  ( 0.00     3.1102)
 DELTA :1...14       ( 2.00  -144.0862)  ( 2.00   -30.4541)  ( 2.00   -16.3790)  ( 2.00    -4.2847)
                     ( 0.00    -0.2233)  ( 0.00    -0.1020)  ( 0.00     0.0494)  ( 0.00     0.3979)
                     ( 0.00     0.4735)  ( 0.00     1.6601)  ( 0.00     3.0132)  ( 0.00     3.4867)
                     ( 0.00    25.9699)  ( 0.00    27.7719)
 PHI :1...5          ( 2.00   -16.3983)  ( 2.00    -0.2595)  ( 0.00     0.4492)  ( 0.00     2.9601)
                     ( 0.00    25.9362)
  
 Spin polar: 3 (Spin_A minus Spin_B electrons)

 CYCLE    4
 d-Pmat  mean:  0.21E-02
 imax=    160: -0.19E-01
 d-Pmat  mean:  0.17E-02
 imax=    160: -0.18E-01
 ***** SPIN 1 *****
 orbitals (Q,E):
 ---------------
 SIGMA :9...28       ( 1.00   -30.3837)  ( 1.00   -16.3298)  ( 1.00   -13.0983)  ( 1.00    -9.4943)
                     ( 1.00    -8.7084)  ( 1.00    -4.2442)  ( 1.00    -2.0089)  ( 1.00    -0.9469)
                     ( 1.00    -0.2630)  ( 1.00    -0.2255)  ( 0.00    -0.1676)  ( 0.00    -0.0896)
                     ( 0.00     0.0111)  ( 0.00     0.0306)  ( 0.00     0.1218)  ( 0.00     0.2491)
                     ( 0.00     0.3109)  ( 0.00     0.4231)  ( 0.00     0.5539)  ( 0.00     0.8253)
 PI :1...20          ( 2.00  -714.8183)  ( 2.00  -179.3966)  ( 2.00  -144.0375)  ( 2.00   -43.8443)
                     ( 2.00   -30.3909)  ( 2.00   -16.3337)  ( 2.00    -8.7458)  ( 2.00    -4.2697)
                     ( 2.00    -0.9753)  ( 2.00    -0.2456)  ( 0.00    -0.1124)  ( 0.00    -0.0392)
                     ( 0.00     0.0583)  ( 0.00     0.1620)  ( 0.00     0.4083)  ( 0.00     0.6230)
                     ( 0.00     0.6446)  ( 0.00     0.9203)  ( 0.00     1.9494)  ( 0.00     3.1019)
 DELTA :1...15       ( 2.00  -144.0435)  ( 2.00   -30.4069)  ( 2.00   -16.3428)  ( 2.00    -4.2887)
                     ( 2.00    -0.2605)  ( 0.00    -0.1060)  ( 0.00     0.0501)  ( 0.00     0.3983)
                     ( 0.00     0.4631)  ( 0.00     1.6309)  ( 0.00     2.9919)  ( 0.00     3.4821)
                     ( 0.00    25.9886)  ( 0.00    27.7989)  ( 0.00   231.5887)
 PHI :1...5          ( 2.00   -16.3541)  ( 2.00    -0.2674)  ( 0.00     0.4507)  ( 0.00     2.9643)
                     ( 0.00    25.9690)
 ***** SPIN 2 *****
 orbitals (Q,E):
 ---------------
 SIGMA :9...28       ( 1.00   -30.3793)  ( 1.00   -16.3208)  ( 1.00   -13.0597)  ( 1.00    -9.4955)
                     ( 1.00    -8.6561)  ( 1.00    -4.2059)  ( 1.00    -1.9496)  ( 1.00    -0.9005)
                     ( 1.00    -0.2568)  ( 1.00    -0.1847)  ( 0.00    -0.1592)  ( 0.00    -0.0836)
                     ( 0.00     0.0136)  ( 0.00     0.0325)  ( 0.00     0.1242)  ( 0.00     0.2510)
                     ( 0.00     0.3220)  ( 0.00     0.4334)  ( 0.00     0.5656)  ( 0.00     0.8378)
 PI :1...20          ( 2.00  -714.8179)  ( 2.00  -179.3841)  ( 2.00  -144.0247)  ( 2.00   -43.8377)
                     ( 2.00   -30.3815)  ( 2.00   -16.3222)  ( 2.00    -8.6961)  ( 2.00    -4.1908)
                     ( 2.00    -0.9322)  ( 1.00    -0.1826)  ( 0.00    -0.0976)  ( 0.00    -0.0345)
                     ( 0.00     0.0621)  ( 0.00     0.1647)  ( 0.00     0.4312)  ( 0.00     0.6344)
                     ( 0.00     0.6667)  ( 0.00     0.9149)  ( 0.00     1.9470)  ( 0.00     3.1428)
 DELTA :1...14       ( 2.00  -144.0346)  ( 2.00   -30.4002)  ( 2.00   -16.3274)  ( 2.00    -4.2332)
                     ( 0.00    -0.1838)  ( 0.00    -0.0864)  ( 0.00     0.0530)  ( 0.00     0.4140)
                     ( 0.00     0.4827)  ( 0.00     1.6226)  ( 0.00     3.0477)  ( 0.00     3.5251)
                     ( 0.00    26.0188)  ( 0.00    27.8228)
 PHI :1...5          ( 2.00   -16.3439)  ( 2.00    -0.2171)  ( 0.00     0.4645)  ( 0.00     2.9995)
                     ( 0.00    25.9883)
  
 Spin polar: 3 (Spin_A minus Spin_B electrons)

 CYCLE    5
 d-Pmat  mean:  0.27E-02
 imax=    159:  0.38E-01
 d-Pmat  mean:  0.14E-01
 imax=    133: -0.26E+00
 ***** SPIN 1 *****
 orbitals (Q,E):
 ---------------
 SIGMA :9...28       ( 1.00   -30.3152)  ( 1.00   -16.2611)  ( 1.00   -13.0362)  ( 1.00    -9.6096)
                     ( 1.00    -8.6402)  ( 1.00    -4.1796)  ( 1.00    -1.9574)  ( 1.00    -0.9041)
                     ( 1.00    -0.2930)  ( 1.00    -0.1759)  ( 0.00    -0.1510)  ( 0.00    -0.0832)
                     ( 0.00     0.0056)  ( 0.00     0.0327)  ( 0.00     0.1066)  ( 0.00     0.2413)
                     ( 0.00     0.3294)  ( 0.00     0.4366)  ( 0.00     0.5563)  ( 0.00     0.8066)
 PI :1...20          ( 2.00  -714.7477)  ( 2.00  -179.3273)  ( 2.00  -143.9660)  ( 2.00   -43.7804)
                     ( 2.00   -30.3239)  ( 2.00   -16.2657)  ( 2.00    -8.6879)  ( 2.00    -4.2071)
                     ( 2.00    -0.9321)  ( 2.00    -0.1893)  ( 0.00    -0.1023)  ( 0.00    -0.0337)
                     ( 0.00     0.0612)  ( 0.00     0.1307)  ( 0.00     0.4308)  ( 0.00     0.6369)
                     ( 0.00     0.6606)  ( 0.00     0.8601)  ( 0.00     1.8900)  ( 0.00     3.1509)
 DELTA :1...15       ( 2.00  -143.9741)  ( 2.00   -30.3440)  ( 2.00   -16.2769)  ( 2.00    -4.2339)
                     ( 2.00    -0.2073)  ( 0.00    -0.0821)  ( 0.00     0.0563)  ( 0.00     0.4212)
                     ( 0.00     0.4783)  ( 0.00     1.5667)  ( 0.00     3.0395)  ( 0.00     3.5269)
                     ( 0.00    26.0522)  ( 0.00    27.8577)  ( 0.00   231.6552)
 PHI :1...5          ( 2.00   -16.2914)  ( 2.00    -0.2200)  ( 0.00     0.4717)  ( 0.00     3.0095)
                     ( 0.00    26.0290)
 ***** SPIN 2 *****
 orbitals (Q,E):
 ---------------
 SIGMA :8...27       ( 1.00   -43.7456)  ( 1.00   -30.3110)  ( 1.00   -16.2520)  ( 1.00   -12.9976)
                     ( 1.00    -9.6114)  ( 1.00    -8.5906)  ( 1.00    -4.1426)  ( 1.00    -1.8983)
                     ( 1.00    -0.8608)  ( 1.00    -0.2937)  ( 0.00    -0.2837)  ( 0.00    -0.1404)
                     ( 0.00    -0.0779)  ( 0.00     0.0075)  ( 0.00     0.0354)  ( 0.00     0.1084)
                     ( 0.00     0.2434)  ( 0.00     0.3413)  ( 0.00     0.4463)  ( 0.00     0.5677)
 PI :1...20          ( 2.00  -714.7473)  ( 2.00  -179.3145)  ( 2.00  -143.9536)  ( 2.00   -43.7737)
                     ( 2.00   -30.3148)  ( 2.00   -16.2548)  ( 2.00    -8.6370)  ( 2.00    -4.1303)
                     ( 2.00    -0.8878)  ( 2.00    -0.1349)  ( 0.00    -0.0898)  ( 0.00    -0.0270)
                     ( 0.00     0.0649)  ( 0.00     0.1354)  ( 0.00     0.4539)  ( 0.00     0.6481)
                     ( 0.00     0.6837)  ( 0.00     0.8544)  ( 0.00     1.8859)  ( 0.00     3.1900)
 DELTA :1...14       ( 2.00  -143.9647)  ( 2.00   -30.3369)  ( 2.00   -16.2615)  ( 2.00    -4.1760)
                     ( 0.00    -0.1304)  ( 0.00    -0.0635)  ( 0.00     0.0601)  ( 0.00     0.4388)
                     ( 0.00     0.4989)  ( 0.00     1.5559)  ( 0.00     3.0953)  ( 0.00     3.5721)
                     ( 0.00    26.0822)  ( 0.00    27.8827)
 PHI :1...5          ( 2.00   -16.2806)  ( 2.00    -0.1671)  ( 0.00     0.4875)  ( 0.00     3.0470)
                     ( 0.00    26.0495)
  
 Spin polar: 3 (Spin_A minus Spin_B electrons)

 CYCLE    6
 d-Pmat  mean:  0.54E-03
 imax=    160:  0.16E-01
 d-Pmat  mean:  0.57E-03
 imax=    160:  0.17E-01
 ***** SPIN 1 *****
 orbitals (Q,E):
 ---------------
 SIGMA :9...28       ( 1.00   -30.3227)  ( 1.00   -16.2687)  ( 1.00   -13.0459)  ( 1.00    -9.6070)
                     ( 1.00    -8.6461)  ( 1.00    -4.1855)  ( 1.00    -1.9643)  ( 1.00    -0.9065)
                     ( 1.00    -0.2947)  ( 1.00    -0.1800)  ( 0.00    -0.1515)  ( 0.00    -0.0823)
                     ( 0.00     0.0057)  ( 0.00     0.0323)  ( 0.00     0.1066)  ( 0.00     0.2417)
                     ( 0.00     0.3279)  ( 0.00     0.4357)  ( 0.00     0.5555)  ( 0.00     0.8061)
 PI :1...20          ( 2.00  -714.7541)  ( 2.00  -179.3355)  ( 2.00  -143.9733)  ( 2.00   -43.7903)
                     ( 2.00   -30.3324)  ( 2.00   -16.2738)  ( 2.00    -8.6994)  ( 2.00    -4.2155)
                     ( 2.00    -0.9389)  ( 2.00    -0.1951)  ( 0.00    -0.1032)  ( 0.00    -0.0347)
                     ( 0.00     0.0607)  ( 0.00     0.1306)  ( 0.00     0.4290)  ( 0.00     0.6346)
                     ( 0.00     0.6580)  ( 0.00     0.8611)  ( 0.00     1.8912)  ( 0.00     3.1459)
 DELTA :1...15       ( 2.00  -143.9823)  ( 2.00   -30.3543)  ( 2.00   -16.2861)  ( 2.00    -4.2458)
                     ( 2.00    -0.2151)  ( 0.00    -0.0854)  ( 0.00     0.0555)  ( 0.00     0.4179)
                     ( 0.00     0.4762)  ( 0.00     1.5680)  ( 0.00     3.0326)  ( 0.00     3.5182)
                     ( 0.00    26.0433)  ( 0.00    27.8474)  ( 0.00   231.6471)
 PHI :1...5          ( 2.00   -16.3020)  ( 2.00    -0.2300)  ( 0.00     0.4686)  ( 0.00     3.0006)
                     ( 0.00    26.0186)
 ***** SPIN 2 *****
 orbitals (Q,E):
 ---------------
 SIGMA :8...27       ( 1.00   -43.7528)  ( 1.00   -30.3186)  ( 1.00   -16.2604)  ( 1.00   -13.0071)
                     ( 1.00    -9.6089)  ( 1.00    -8.5972)  ( 1.00    -4.1497)  ( 1.00    -1.9050)
                     ( 1.00    -0.8637)  ( 1.00    -0.2958)  ( 0.00    -0.1430)  ( 0.00    -0.1402)
                     ( 0.00    -0.0779)  ( 0.00     0.0072)  ( 0.00     0.0348)  ( 0.00     0.1080)
                     ( 0.00     0.2429)  ( 0.00     0.3396)  ( 0.00     0.4447)  ( 0.00     0.5656)
 PI :1...20          ( 2.00  -714.7536)  ( 2.00  -179.3225)  ( 2.00  -143.9608)  ( 2.00   -43.7834)
                     ( 2.00   -30.3233)  ( 2.00   -16.2624)  ( 2.00    -8.6478)  ( 2.00    -4.1383)
                     ( 2.00    -0.8942)  ( 2.00    -0.1384)  ( 0.00    -0.0907)  ( 0.00    -0.0281)
                     ( 0.00     0.0644)  ( 0.00     0.1348)  ( 0.00     0.4519)  ( 0.00     0.6463)
                     ( 0.00     0.6811)  ( 0.00     0.8548)  ( 0.00     1.8866)  ( 0.00     3.1865)
 DELTA :1...14       ( 2.00  -143.9727)  ( 2.00   -30.3471)  ( 2.00   -16.2707)  ( 2.00    -4.1871)
                     ( 0.00    -0.1381)  ( 0.00    -0.0666)  ( 0.00     0.0592)  ( 0.00     0.4355)
                     ( 0.00     0.4962)  ( 0.00     1.5567)  ( 0.00     3.0881)  ( 0.00     3.5639)
                     ( 0.00    26.0733)  ( 0.00    27.8728)
 PHI :1...5          ( 2.00   -16.2909)  ( 2.00    -0.1763)  ( 0.00     0.4844)  ( 0.00     3.0386)
                     ( 0.00    26.0395)
  
 Spin polar: 3 (Spin_A minus Spin_B electrons)

 CYCLE    7
 d-Pmat  mean:  0.31E-03
 imax=    160:  0.41E-02
 d-Pmat  mean:  0.31E-03
 imax=    160:  0.35E-02
 ***** SPIN 1 *****
 orbitals (Q,E):
 ---------------
 SIGMA :9...28       ( 1.00   -30.3188)  ( 1.00   -16.2648)  ( 1.00   -13.0416)  ( 1.00    -9.6003)
                     ( 1.00    -8.6443)  ( 1.00    -4.1833)  ( 1.00    -1.9626)  ( 1.00    -0.9079)
                     ( 1.00    -0.2940)  ( 1.00    -0.1794)  ( 0.00    -0.1508)  ( 0.00    -0.0819)
                     ( 0.00     0.0062)  ( 0.00     0.0326)  ( 0.00     0.1077)  ( 0.00     0.2419)
                     ( 0.00     0.3283)  ( 0.00     0.4357)  ( 0.00     0.5563)  ( 0.00     0.8078)
 PI :1...20          ( 2.00  -714.7509)  ( 2.00  -179.3315)  ( 2.00  -143.9697)  ( 2.00   -43.7854)
                     ( 2.00   -30.3284)  ( 2.00   -16.2698)  ( 2.00    -8.6942)  ( 2.00    -4.2129)
                     ( 2.00    -0.9370)  ( 2.00    -0.1941)  ( 0.00    -0.1033)  ( 0.00    -0.0341)
                     ( 0.00     0.0608)  ( 0.00     0.1325)  ( 0.00     0.4289)  ( 0.00     0.6354)
                     ( 0.00     0.6586)  ( 0.00     0.8639)  ( 0.00     1.8934)  ( 0.00     3.1468)
 DELTA :1...15       ( 2.00  -143.9782)  ( 2.00   -30.3492)  ( 2.00   -16.2818)  ( 2.00    -4.2403)
                     ( 2.00    -0.2131)  ( 0.00    -0.0847)  ( 0.00     0.0558)  ( 0.00     0.4190)
                     ( 0.00     0.4766)  ( 0.00     1.5706)  ( 0.00     3.0345)  ( 0.00     3.5218)
                     ( 0.00    26.0472)  ( 0.00    27.8523)  ( 0.00   231.6511)
 PHI :1...5          ( 2.00   -16.2967)  ( 2.00    -0.2257)  ( 0.00     0.4695)  ( 0.00     3.0043)
                     ( 0.00    26.0237)
 ***** SPIN 2 *****
 orbitals (Q,E):
 ---------------
 SIGMA :8...27       ( 1.00   -43.7493)  ( 1.00   -30.3148)  ( 1.00   -16.2567)  ( 1.00   -13.0028)
                     ( 1.00    -9.6022)  ( 1.00    -8.5950)  ( 1.00    -4.1473)  ( 1.00    -1.9033)
                     ( 1.00    -0.8648)  ( 1.00    -0.2945)  ( 0.00    -0.1428)  ( 0.00    -0.1395)
                     ( 0.00    -0.0775)  ( 0.00     0.0078)  ( 0.00     0.0351)  ( 0.00     0.1092)
                     ( 0.00     0.2433)  ( 0.00     0.3399)  ( 0.00     0.4450)  ( 0.00     0.5664)
 PI :1...20          ( 2.00  -714.7505)  ( 2.00  -179.3185)  ( 2.00  -143.9572)  ( 2.00   -43.7786)
                     ( 2.00   -30.3192)  ( 2.00   -16.2583)  ( 2.00    -8.6427)  ( 2.00    -4.1354)
                     ( 2.00    -0.8925)  ( 2.00    -0.1368)  ( 0.00    -0.0904)  ( 0.00    -0.0276)
                     ( 0.00     0.0645)  ( 0.00     0.1368)  ( 0.00     0.4516)  ( 0.00     0.6472)
                     ( 0.00     0.6817)  ( 0.00     0.8578)  ( 0.00     1.8891)  ( 0.00     3.1880)
 DELTA :1...14       ( 2.00  -143.9687)  ( 2.00   -30.3421)  ( 2.00   -16.2664)  ( 2.00    -4.1819)
                     ( 0.00    -0.1363)  ( 0.00    -0.0661)  ( 0.00     0.0594)  ( 0.00     0.4365)
                     ( 0.00     0.4965)  ( 0.00     1.5597)  ( 0.00     3.0899)  ( 0.00     3.5671)
                     ( 0.00    26.0771)  ( 0.00    27.8776)
 PHI :1...5          ( 2.00   -16.2857)  ( 2.00    -0.1724)  ( 0.00     0.4852)  ( 0.00     3.0422)
                     ( 0.00    26.0444)
  
 Spin polar: 3 (Spin_A minus Spin_B electrons)

 CYCLE    8
 d-Pmat  mean:  0.52E-01
 imax=    127: -0.35E+00
 d-Pmat  mean:  0.45E-01
 imax=    127: -0.34E+00
 ***** SPIN 1 *****
 orbitals (Q,E):
 ---------------
 SIGMA :10...29      ( 1.00   -15.6849)  ( 1.00   -12.5136)  ( 1.00    -9.9548)  ( 1.00    -8.1548)
                     ( 1.00    -3.7185)  ( 1.00    -1.6312)  ( 1.00    -0.7057)  ( 1.00    -0.4010)
                     ( 1.00    -0.0006)  ( 1.00     0.0544)  ( 0.00     0.0075)  ( 0.00     0.0382)
                     ( 0.00     0.0661)  ( 0.00     0.0937)  ( 0.00     0.2646)  ( 0.00     0.4035)
                     ( 0.00     0.5025)  ( 0.00     0.6137)  ( 0.00     0.8286)  ( 0.00     1.1520)
 PI :2...21          ( 2.00  -178.7070)  ( 2.00  -143.3469)  ( 2.00   -43.1958)  ( 2.00   -29.7493)
                     ( 2.00   -15.6885)  ( 2.00    -8.1753)  ( 2.00    -3.7427)  ( 2.00    -0.6680)
                     ( 2.00    -0.0241)  ( 1.00     0.1418)  ( 0.00     0.0339)  ( 0.00     0.0741)
                     ( 0.00     0.1434)  ( 0.00     0.5522)  ( 0.00     0.6668)  ( 0.00     0.7345)
                     ( 0.00     0.8437)  ( 0.00     1.7406)  ( 0.00     3.4834)  ( 0.00     3.9264)
 DELTA :1...15       ( 2.00  -143.3505)  ( 2.00   -29.7592)  ( 2.00   -15.6962)  ( 2.00    -3.7465)
                     ( 2.00     0.1344)  ( 0.00     0.0163)  ( 0.00     0.1025)  ( 0.00     0.5618)
                     ( 0.00     0.5904)  ( 0.00     1.3964)  ( 0.00     3.3824)  ( 0.00     3.8815)
                     ( 0.00    26.5936)  ( 0.00    28.3893)  ( 0.00   232.2498)
 PHI :1...5          ( 2.00   -15.7023)  ( 0.00    -0.0069)  ( 0.00     0.6093)  ( 0.00     3.3716)
                     ( 0.00    26.5812)
 ***** SPIN 2 *****
 orbitals (Q,E):
 ---------------
 SIGMA :10...29      ( 1.00   -15.6749)  ( 1.00   -12.4751)  ( 1.00    -9.9565)  ( 1.00    -8.1040)
                     ( 1.00    -3.6797)  ( 1.00    -1.5745)  ( 1.00    -0.6745)  ( 1.00    -0.3994)
                     ( 1.00     0.0097)  ( 1.00     0.0863)  ( 0.00     0.0260)  ( 0.00     0.0627)
                     ( 0.00     0.0930)  ( 0.00     0.1718)  ( 0.00     0.2842)  ( 0.00     0.4159)
                     ( 0.00     0.5189)  ( 0.00     0.6267)  ( 0.00     0.8515)  ( 0.00     1.1520)
 PI :1...20          ( 2.00  -714.1332)  ( 2.00  -178.6944)  ( 2.00  -143.3345)  ( 2.00   -43.1892)
                     ( 2.00   -29.7402)  ( 2.00   -15.6779)  ( 2.00    -8.1252)  ( 2.00    -3.6659)
                     ( 2.00    -0.6278)  ( 2.00    -0.0399)  ( 0.00     0.0220)  ( 0.00     0.0528)
                     ( 0.00     0.0887)  ( 0.00     0.1603)  ( 0.00     0.5779)  ( 0.00     0.6638)
                     ( 0.00     0.7544)  ( 0.00     0.8665)  ( 0.00     1.7379)  ( 0.00     3.5217)
 DELTA :1...14       ( 2.00  -143.3414)  ( 2.00   -29.7523)  ( 2.00   -15.6808)  ( 2.00    -3.6900)
                     ( 0.00     0.0189)  ( 0.00     0.1112)  ( 0.00     0.1994)  ( 0.00     0.5822)
                     ( 0.00     0.6272)  ( 0.00     1.3870)  ( 0.00     3.4390)  ( 0.00     3.9258)
                     ( 0.00    26.6235)  ( 0.00    28.4136)
 PHI :1...5          ( 2.00   -15.6919)  ( 0.00     0.0376)  ( 0.00     0.6302)  ( 0.00     3.4083)
                     ( 0.00    26.6009)
  
 Spin polar: 3 (Spin_A minus Spin_B electrons)

 CYCLE    9
 d-Pmat  mean:  0.19E-01
 imax=     10:  0.11E+00
 d-Pmat  mean:  0.13E-01
 imax=     10:  0.11E+00
 ***** SPIN 1 *****
 orbitals (Q,E):
 ---------------
 SIGMA :10...29      ( 1.00   -16.2517)  ( 1.00   -12.9665)  ( 1.00   -10.2463)  ( 1.00    -8.6207)
                     ( 1.00    -4.1445)  ( 1.00    -1.9030)  ( 1.00    -0.9520)  ( 1.00    -0.5883)
                     ( 1.00    -0.3143)  ( 1.00    -0.1392)  ( 0.00    -0.1044)  ( 0.00    -0.0162)
                     ( 0.00     0.0269)  ( 0.00     0.0549)  ( 0.00     0.1640)  ( 0.00     0.3321)
                     ( 0.00     0.3939)  ( 0.00     0.4744)  ( 0.00     0.7124)  ( 0.00     0.9706)
 PI :2...21          ( 2.00  -179.3390)  ( 2.00  -143.9938)  ( 2.00   -43.7402)  ( 2.00   -30.3049)
                     ( 2.00   -16.2506)  ( 2.00    -8.5857)  ( 2.00    -4.1508)  ( 2.00    -0.8676)
                     ( 2.00    -0.3335)  ( 1.00    -0.0995)  ( 0.00    -0.0456)  ( 0.00     0.0110)
                     ( 0.00     0.0473)  ( 0.00     0.4379)  ( 0.00     0.5307)  ( 0.00     0.6010)
                     ( 0.00     0.7190)  ( 0.00     1.5709)  ( 0.00     3.1755)  ( 0.00     3.6315)
 DELTA :1...15       ( 2.00  -143.9884)  ( 2.00   -30.2955)  ( 2.00   -16.2488)  ( 2.00    -4.1147)
                     ( 2.00    -0.1228)  ( 0.00    -0.0736)  ( 0.00     0.0598)  ( 0.00     0.4493)
                     ( 0.00     0.4748)  ( 0.00     1.2344)  ( 0.00     3.0894)  ( 0.00     3.6168)
                     ( 0.00    26.0845)  ( 0.00    27.9247)  ( 0.00   231.6488)
 PHI :1...5          ( 2.00   -16.2398)  ( 0.00    -0.1091)  ( 0.00     0.5065)  ( 0.00     3.1029)
                     ( 0.00    26.0903)
 ***** SPIN 2 *****
 orbitals (Q,E):
 ---------------
 SIGMA :10...29      ( 1.00   -16.2388)  ( 1.00   -12.9348)  ( 1.00   -10.2472)  ( 1.00    -8.5718)
                     ( 1.00    -4.1041)  ( 1.00    -1.8507)  ( 1.00    -0.9158)  ( 1.00    -0.5799)
                     ( 1.00    -0.3010)  ( 1.00    -0.1178)  ( 0.00    -0.0627)  ( 0.00     0.0024)
                     ( 0.00     0.0340)  ( 0.00     0.0576)  ( 0.00     0.1753)  ( 0.00     0.3448)
                     ( 0.00     0.4074)  ( 0.00     0.4894)  ( 0.00     0.7394)  ( 0.00     0.9778)
 PI :1...20          ( 2.00  -714.8021)  ( 2.00  -179.3295)  ( 2.00  -143.9835)  ( 2.00   -43.7355)
                     ( 2.00   -30.2975)  ( 2.00   -16.2436)  ( 2.00    -8.5472)  ( 2.00    -4.0842)
                     ( 2.00    -0.8294)  ( 2.00    -0.3339)  ( 0.00    -0.0968)  ( 0.00     0.0066)
                     ( 0.00     0.0188)  ( 0.00     0.0595)  ( 0.00     0.4642)  ( 0.00     0.5319)
                     ( 0.00     0.6212)  ( 0.00     0.7383)  ( 0.00     1.5727)  ( 0.00     3.2040)
 DELTA :1...14       ( 2.00  -143.9819)  ( 2.00   -30.2908)  ( 2.00   -16.2357)  ( 2.00    -4.0717)
                     ( 0.00    -0.0887)  ( 0.00    -0.0244)  ( 0.00     0.0658)  ( 0.00     0.4682)
                     ( 0.00     0.5043)  ( 0.00     1.2312)  ( 0.00     3.1440)  ( 0.00     3.6535)
                     ( 0.00    26.1115)  ( 0.00    27.9432)
 PHI :1...5          ( 2.00   -16.2329)  ( 0.00    -0.0702)  ( 0.00     0.5214)  ( 0.00     3.1312)
                     ( 0.00    26.1045)
  
 Spin polar: 3 (Spin_A minus Spin_B electrons)

 CYCLE   10
 d-Pmat  mean:  0.18E-01
 imax=    163: -0.18E+00
 d-Pmat  mean:  0.84E-02
 imax=    159: -0.14E+00
 ***** SPIN 1 *****
 orbitals (Q,E):
 ---------------
 SIGMA :9...28       ( 1.00   -30.3427)  ( 1.00   -16.2889)  ( 1.00   -13.0301)  ( 1.00    -9.8657)
                     ( 1.00    -8.6722)  ( 1.00    -4.2010)  ( 1.00    -1.9481)  ( 1.00    -0.9441)
                     ( 1.00    -0.4204)  ( 1.00    -0.1874)  ( 0.00    -0.2946)  ( 0.00    -0.1420)
                     ( 0.00    -0.0265)  ( 0.00     0.0246)  ( 0.00     0.0754)  ( 0.00     0.1913)
                     ( 0.00     0.3308)  ( 0.00     0.4112)  ( 0.00     0.5114)  ( 0.00     0.7493)
 PI :2...21          ( 2.00  -179.3545)  ( 2.00  -144.0038)  ( 2.00   -43.7845)  ( 2.00   -30.3436)
                     ( 2.00   -16.2886)  ( 2.00    -8.6588)  ( 2.00    -4.2108)  ( 2.00    -0.9116)
                     ( 2.00    -0.2052)  ( 2.00    -0.1470)  ( 0.00    -0.0410)  ( 0.00     0.0474)
                     ( 0.00     0.0561)  ( 0.00     0.4210)  ( 0.00     0.6108)  ( 0.00     0.6444)
                     ( 0.00     0.7490)  ( 0.00     1.7543)  ( 0.00     3.1372)  ( 0.00     3.5890)
 DELTA :1...15       ( 2.00  -144.0018)  ( 2.00   -30.3427)  ( 2.00   -16.2898)  ( 2.00    -4.1925)
                     ( 2.00    -0.1945)  ( 0.00    -0.0765)  ( 0.00     0.0532)  ( 0.00     0.4322)
                     ( 0.00     0.4629)  ( 0.00     1.4272)  ( 0.00     3.0423)  ( 0.00     3.5566)
                     ( 0.00    26.0424)  ( 0.00    27.8707)  ( 0.00   231.6320)
 PHI :1...5          ( 2.00   -16.2876)  ( 0.00    -0.1782)  ( 0.00     0.4822)  ( 0.00     3.0421)
                     ( 0.00    26.0396)
 ***** SPIN 2 *****
 orbitals (Q,E):
 ---------------
 SIGMA :10...29      ( 1.00   -16.2757)  ( 1.00   -12.9949)  ( 1.00    -9.8668)  ( 1.00    -8.6177)
                     ( 1.00    -4.1565)  ( 1.00    -1.8907)  ( 1.00    -0.8971)  ( 1.00    -0.4158)
                     ( 1.00    -0.1545)  ( 1.00    -0.1328)  ( 0.00    -0.1033)  ( 0.00    -0.0145)
[...]
                                    2.85%     7 S              -3.989  2.00     1 Am
                                   -1.09%     6 P:z            -0.345  0.00     1 Am
                                    1.02%     2 F:z3           -2.593  1.00     1 Am
      -5.168  1.00    10 PI:x      73.22%     1 P:x            -5.502  0.67     2 C
                                   18.88%     4 D:xz           -1.294  0.00     1 Am
                                    6.19%     2 F:z2x          -2.593  1.00     1 Am
      -5.168  1.00    10 PI:y      73.22%     1 P:y            -5.502  0.67     2 C
                                   18.88%     4 D:yz           -1.294  0.00     1 Am
                                    6.19%     2 F:z2y          -2.593  1.00     1 Am
      -4.971  1.00    18 SIGMA     61.41%     1 P:z            -5.502  0.67     2 C
                                   11.11%     7 S              -3.989  2.00     1 Am
                                    7.59%     6 P:z            -0.345  0.00     1 Am
                                    5.29%     4 D:z2           -1.294  0.00     1 Am
                                    5.26%     2 F:z3           -2.593  1.00     1 Am
                                    3.10%     2 S             -14.050  2.00     2 C
                                    2.98%     5 D:z2            1.720  0.00     1 Am
                                    1.22%     5 P:z           -22.924  2.00     1 Am
                                    1.14%     6 D:z2           12.556  0.00     1 Am
      -3.730  1.00    19 SIGMA     71.31%     7 S              -3.989  2.00     1 Am
                                   15.52%     4 D:z2           -1.294  0.00     1 Am
                                    3.89%     2 F:z3           -2.593  1.00     1 Am
                                    2.53%     1 P:z            -5.502  0.67     2 C
                                    2.46%     6 P:z            -0.345  0.00     1 Am
                                    1.34%     5 D:z2            1.720  0.00     1 Am
       2.310  0.00    20 SIGMA     71.47%     2 F:z3           -2.593  1.00     1 Am
                                   24.02%     4 D:z2           -1.294  0.00     1 Am
                                    4.01%     6 P:z            -0.345  0.00     1 Am
       2.380  0.00    11 PI:x      68.01%     2 F:z2x          -2.593  1.00     1 Am
                                   28.99%     4 D:xz           -1.294  0.00     1 Am
                                    2.84%     6 P:x            -0.345  0.00     1 Am
       2.380  0.00    11 PI:y      68.01%     2 F:z2y          -2.593  1.00     1 Am
                                   28.99%     4 D:yz           -1.294  0.00     1 Am
                                    2.84%     6 P:y            -0.345  0.00     1 Am
       2.552  0.00     5 DELTA:x2- 67.31%     4 D:x2-y2        -1.294  0.00     1 Am
                                   32.47%     2 F:z            -2.593  1.00     1 Am
       2.552  0.00     5 DELTA:xy  67.31%     4 D:xy           -1.294  0.00     1 Am
                                   32.47%     2 F:xyz          -2.593  1.00     1 Am
       2.921  0.00     6 DELTA:x2- 67.17%     2 F:z            -2.593  1.00     1 Am
                                   32.34%     4 D:x2-y2        -1.294  0.00     1 Am
       2.921  0.00     6 DELTA:xy  67.17%     2 F:xyz          -2.593  1.00     1 Am
                                   32.34%     4 D:xy           -1.294  0.00     1 Am
       2.994  0.00     2 PHI:x3-3x 99.80%     2 F:x            -2.593  1.00     1 Am
                                    0.20%     3 F:x            13.889  0.00     1 Am
       2.994  0.00     2 PHI:3x2y- 99.80%     2 F:y            -2.593  1.00     1 Am
                                    0.20%     3 F:y            13.889  0.00     1 Am
       3.105  0.00    12 PI:x      68.83%     6 P:x            -0.345  0.00     1 Am
                                   15.41%     2 F:z2x          -2.593  1.00     1 Am
                                   11.21%     4 D:xz           -1.294  0.00     1 Am
                                    3.41%     1 P:x            -5.502  0.67     2 C
       3.105  0.00    12 PI:y      68.83%     6 P:y            -0.345  0.00     1 Am
                                   15.41%     2 F:z2y          -2.593  1.00     1 Am
                                   11.21%     4 D:yz           -1.294  0.00     1 Am
                                    3.41%     1 P:y            -5.502  0.67     2 C
       3.455  0.00    21 SIGMA     49.98%     6 P:z            -0.345  0.00     1 Am
                                   12.13%     2 F:z3           -2.593  1.00     1 Am
                                   11.06%     5 D:z2            1.720  0.00     1 Am
                                   10.90%     4 D:z2           -1.294  0.00     1 Am
                                    8.72%     1 P:z            -5.502  0.67     2 C
                                    8.36%     8 S               0.751  0.00     1 Am
                                   -1.08%     3 S              10.982  0.00     2 C



 ===============================================================================
 Electrostatic potential at the Nuclei due to valence electrons and other nuclei
 ===============================================================================
  
         Atom                  Potential
         ----                  ---------
     1)   Am                853.67535548
     2)   C                  14.83130380
 
 
 ========================
 No memory problems found
 ========================
 
 Maximum number of active allocate calls:        1438
 
 *******************************************************************************

                             A D F   E X I T
 NORMAL TERMINATION



 =================
 Timing Statistics
 =================
  
 Total Used :                     CPU=       39.88      System=        0.50     Elapsed=      100.77

 Calls  Section                     ( Mean, Percentage )
 ---------------------------------------------------------------------------------------------------
     3  ><      ................      0.00    0.01             0.00    0.20             0.03    0.08
     1  INIT    ................      0.02    0.06             0.01    1.80             7.51    7.45
     1  GEOMET  ................      0.02    0.05             0.08   16.20             8.06    8.00
     1  FRAGM   ................      0.03    0.09             0.02    4.60             7.70    7.64
     1  INPUTA  ................      0.00    0.00             0.00    0.20             0.00    0.00
     1  ATDEN   ................      0.05    0.12             0.01    2.40             0.33    0.33
     1  MAINSY  ................      0.02    0.05             0.00    1.00             0.71    0.71
     1  SYMFIT  ................      0.00    0.00             0.00    0.00             0.00    0.00
     1  CORORT  ................      0.00    0.00             0.00    0.20             0.03    0.03
     1  SYMORB  ................      0.00    0.01             0.00    0.00             1.47    1.46
     1  FITINT  ................      1.32    3.31             0.00    0.80             9.43    9.36
     1  CLSMAT  ................      0.00    0.01             0.00    0.20             1.35    1.34
     1  ORTHON  ................      0.02    0.04             0.00    0.20             0.15    0.15
     1  GENPT   ................      0.15    0.39             0.00    0.60             1.13    1.13
     1  PTBAS   ................      0.26    0.66             0.00    0.60             1.19    1.18
    49  FOCKY   ................      0.71   87.79             0.00   39.00             0.79   38.56
    49  FOCKTR  ................      0.00    0.35             0.00    1.40             0.04    2.11
    49  FOCKNM  ................      0.00    0.00             0.00    0.00             0.00    0.00
    49  SDIIS   ................      0.00    0.42             0.00    7.00             0.14    6.61
    49  EMERGE  ................      0.03    3.85             0.00   14.80             0.03    1.63
     1  COREPS  ................      0.22    0.54             0.00    0.40             0.23    0.23
     1  TOTEN   ................      0.74    1.85             0.02    3.20             1.50    1.49
     1  POPAN   ................      0.01    0.03             0.00    0.40             0.04    0.04
     1  DEBYE   ................      0.05    0.12             0.00    0.20             0.08    0.08
     1  INPUTE  ................      0.00    0.00             0.00    0.00             0.00    0.00
     1  SYMORE  ................      0.00    0.01             0.00    0.00             0.00    0.00
     2  METS    ................      0.00    0.00             0.00    0.20             0.01    0.03
     1  CETS    ................      0.01    0.03             0.00    0.60             0.01    0.01
     1  ELNRGY  ................      0.01    0.02             0.00    0.00             0.01    0.01
     1  POPUL   ................      0.03    0.07             0.01    2.60             0.25    0.25
     1  QMPOT   ................      0.00    0.00             0.00    0.00             0.00    0.00
     1  EXIT PROCEDURE .........      0.05    0.12             0.01    1.20            10.18   10.11


 Currently Open Files (EXIT00)
 ====================

 Unit    Access Format  Status   Type       Ident (file)
 -------------------------------------------------------
   3      SEQ    FORM   TRANSP  NORMAL      LOGFILE
                                          ( logfile )


 Buffered I/O statistics
 =======================
 Memory available:                     67108864
 Number of records fitting in memory:     16131
 Input :   0.3% of                       129107  *4k bytes
 Output:   2.2% of                        28423  *4k bytes
 Records from serial files evicted:           0
                    others evicted:           0
 Hash table lookups:     451448 with          0 conflicts (  0.00%)

 ***************************************************************************************************
 (LOGFILE)
 <Mar01-2015> <03:30:21>  DIRAC 2013.01  RunTime: Mar01-2015 03:30:19  Nodes: 1  Procs: 1
 <Mar01-2015> <03:31:38>  NORMAL TERMINATION
 <Mar01-2015> <03:31:38>  END
 <Mar01-2015> <03:31:49>  ADF 2013.01  RunTime: Mar01-2015 03:31:49  Nodes: 1  Procs: 1
 <Mar01-2015> <03:31:49>  Americium (TZP, all electron)
 <Mar01-2015> <03:31:53>  RunType   : CREATE
 <Mar01-2015> <03:31:55>  Net Charge: 0 (Nuclei minus Electrons)
 <Mar01-2015> <03:31:55>  Symmetry  : ATOM
  Coordinates
    Atom         X           Y           Z   (Angstrom)
    1.Am        0.000000    0.000000    0.000000
 <Mar01-2015> <03:31:59>  >>>> CORORT
 <Mar01-2015> <03:32:01>  >>>> FITINT
 <Mar01-2015> <03:32:13>  >>>> CLSMAT
 <Mar01-2015> <03:32:16>  >>>> ORTHON
 <Mar01-2015> <03:32:17>  >>>> GENPT
 <Mar01-2015> <03:32:17>  Acc.Num.Int.=  10.000
 <Mar01-2015> <03:32:17>  Block Length=  81
 <Mar01-2015> <03:32:18>  >>>> PTBAS
 <Mar01-2015> <03:32:18>  >>>> CYCLE
 <Mar01-2015> <03:32:18>    1
 <Mar01-2015> <03:32:18>    2  ErrMat 778.21493545  MaxEl140.15633611
 <Mar01-2015> <03:32:18>    3  ErrMat 277.12685622  MaxEl 54.29093926
 <Mar01-2015> <03:32:18>    4  ErrMat 222.80351347  MaxEl 40.35855429
 <Mar01-2015> <03:32:18>    5  ErrMat 141.98435398  MaxEl 21.56798350
 <Mar01-2015> <03:32:18>    6  ErrMat  76.23975618  MaxEl 10.51217151
 <Mar01-2015> <03:32:18>    7  ErrMat  31.67074194  MaxEl  3.99367463
 <Mar01-2015> <03:32:19>    8  ErrMat  11.21857969  MaxEl  1.85943045
 <Mar01-2015> <03:32:19>    9  ErrMat   4.81537917  MaxEl  0.75450880
 <Mar01-2015> <03:32:19>   10  ErrMat   0.26041292  MaxEl  0.03755021
 <Mar01-2015> <03:32:19>   11  ErrMat   0.05872081  MaxEl -0.01111884
 <Mar01-2015> <03:32:19>   12  ErrMat   0.02595599  MaxEl  0.00418208
 <Mar01-2015> <03:32:19>   13  ErrMat   0.00058775  MaxEl  0.00008956
 <Mar01-2015> <03:32:19>   14  ErrMat   0.00003543  MaxEl  0.00000605
 <Mar01-2015> <03:32:19>   15  ErrMat   0.00001199  MaxEl -0.00000189
 <Mar01-2015> <03:32:20>   16  ErrMat   0.00000024  MaxEl  0.00000008
 <Mar01-2015> <03:32:20>   17  ErrMat   0.00000002  MaxEl -0.00000001
 <Mar01-2015> <03:32:20>  SCF converged
 <Mar01-2015> <03:32:20>   18  ErrMat   0.00000000  MaxEl  0.00000000
 <Mar01-2015> <03:32:20>   Solutions with partially occupied orbitals may not be
 <Mar01-2015> <03:32:20>   lowest in energy. You might consider lowering the
 <Mar01-2015> <03:32:20>   symmetry in the input and explicitly specifying integer
 <Mar01-2015> <03:32:20>   occupations. In that case always check that you obtain
 <Mar01-2015> <03:32:20>   an aufbau solution.
 <Mar01-2015> <03:32:20>  >>>> POPAN
 <Mar01-2015> <03:32:20>  >>>> DEBYE
 <Mar01-2015> <03:32:24>  NORMAL TERMINATION
 <Mar01-2015> <03:32:30>  END
 <Mar01-2015> <03:32:36>  DIRAC 2013.01  RunTime: Mar01-2015 03:32:36  Nodes: 1  Procs: 1
 <Mar01-2015> <03:33:22>  NORMAL TERMINATION
 <Mar01-2015> <03:33:22>  END
 <Mar01-2015> <03:33:37>  ADF 2013.01  RunTime: Mar01-2015 03:33:37  Nodes: 1  Procs: 1
 <Mar01-2015> <03:33:37>  Carbon (DZP)
 <Mar01-2015> <03:33:42>  RunType   : CREATE
 <Mar01-2015> <03:33:43>  Net Charge: 0 (Nuclei minus Electrons)
 <Mar01-2015> <03:33:43>  Symmetry  : ATOM
  Coordinates
    Atom         X           Y           Z   (Angstrom)
    1.C         0.000000    0.000000    0.000000
 <Mar01-2015> <03:33:49>  >>>> CORORT
 <Mar01-2015> <03:33:50>  >>>> FITINT
 <Mar01-2015> <03:34:00>  >>>> CLSMAT
 <Mar01-2015> <03:34:01>  >>>> ORTHON
 <Mar01-2015> <03:34:01>  >>>> GENPT
 <Mar01-2015> <03:34:01>  Acc.Num.Int.=  10.000
 <Mar01-2015> <03:34:01>  Block Length=  54
 <Mar01-2015> <03:34:02>  >>>> PTBAS
 <Mar01-2015> <03:34:02>  >>>> CYCLE
 <Mar01-2015> <03:34:02>    1
 <Mar01-2015> <03:34:02>    2  ErrMat   3.70365755  MaxEl -2.79092394
 <Mar01-2015> <03:34:02>    3  ErrMat   1.07484326  MaxEl  0.92777186
 <Mar01-2015> <03:34:02>    4  ErrMat   0.78154316  MaxEl  0.66250700
 <Mar01-2015> <03:34:02>    5  ErrMat   0.54850686  MaxEl  0.45563898
 <Mar01-2015> <03:34:02>    6  ErrMat   0.00609434  MaxEl  0.00483714
 <Mar01-2015> <03:34:03>    7  ErrMat   0.00063452  MaxEl -0.00051899
 <Mar01-2015> <03:34:04>    8  ErrMat   0.00000717  MaxEl  0.00000548
 <Mar01-2015> <03:34:04>    9  ErrMat   0.00000045  MaxEl -0.00000037
 <Mar01-2015> <03:34:04>   10  ErrMat   0.00000001  MaxEl  0.00000000
 <Mar01-2015> <03:34:04>  SCF converged
 <Mar01-2015> <03:34:04>   11  ErrMat   0.00000000  MaxEl  0.00000000
 <Mar01-2015> <03:34:04>   Solutions with partially occupied orbitals may not be
 <Mar01-2015> <03:34:04>   lowest in energy. You might consider lowering the
 <Mar01-2015> <03:34:04>   symmetry in the input and explicitly specifying integer
 <Mar01-2015> <03:34:04>   occupations. In that case always check that you obtain
 <Mar01-2015> <03:34:04>   an aufbau solution.
 <Mar01-2015> <03:34:05>  >>>> POPAN
 <Mar01-2015> <03:34:05>  >>>> DEBYE
 <Mar01-2015> <03:34:06>  NORMAL TERMINATION
 <Mar01-2015> <03:34:10>  END
 <Mar01-2015> <03:34:21>  ADF 2013.01  RunTime: Mar01-2015 03:34:21  Nodes: 1  Procs: 1
 <Mar01-2015> <03:34:21>  *** (NO TITLE) ***
 <Mar01-2015> <03:34:27>  RunType   : SINGLE POINT
 <Mar01-2015> <03:34:29>  Net Charge: 0 (Nuclei minus Electrons)
 <Mar01-2015> <03:34:29>  Spin polar: 3 (Spin_A minus Spin_B electrons)
 <Mar01-2015> <03:34:29>  Symmetry  : C(LIN)
 <Mar01-2015> <03:34:29>  >>>> FRAGM
  Coordinates
    Atom         X           Y           Z   (Angstrom)
    1.Am        0.000000    0.000000    0.000000
    2.C         0.000000    0.000000    2.000000
 <Mar01-2015> <03:34:38>  >>>> CORORT
 <Mar01-2015> <03:34:40>  >>>> FITINT
 <Mar01-2015> <03:34:49>  >>>> CLSMAT
 <Mar01-2015> <03:34:50>  >>>> ORTHON
 <Mar01-2015> <03:34:50>  >>>> GENPT
 <Mar01-2015> <03:34:51>  Acc.Num.Int.=  10.000
 <Mar01-2015> <03:34:51>  Block Length= 127
 <Mar01-2015> <03:34:52>  >>>> PTBAS
 <Mar01-2015> <03:34:53>  >>>> CYCLE
 <Mar01-2015> <03:34:53>    1
 <Mar01-2015> <03:34:54>    2  ErrMat   2.74880788  MaxEl -0.44459665
 <Mar01-2015> <03:34:55>    3  ErrMat   4.03116615  MaxEl  0.92592714
 <Mar01-2015> <03:34:55>    4  ErrMat   3.84282999  MaxEl  0.53263779
 <Mar01-2015> <03:34:56>    5  ErrMat   3.65697532  MaxEl -0.52729020
 <Mar01-2015> <03:34:57>    6  ErrMat   3.50582726  MaxEl  0.51318361
 <Mar01-2015> <03:34:58>    7  ErrMat   3.48931632  MaxEl  0.51946506
 <Mar01-2015> <03:34:59>    8  ErrMat   3.46127443  MaxEl  0.52875675
 <Mar01-2015> <03:35:00>    9  ErrMat   3.88984195  MaxEl -0.62342759
 <Mar01-2015> <03:35:00>   10  ErrMat   2.86475492  MaxEl  0.45352078
 <Mar01-2015> <03:35:01>   11  ErrMat   1.38230271  MaxEl  0.34573461
 <Mar01-2015> <03:35:02>   12  ErrMat   1.37256649  MaxEl  0.40085826
 <Mar01-2015> <03:35:03>   13  ErrMat   1.18765259  MaxEl  0.34526010
 <Mar01-2015> <03:35:04>   14  ErrMat   1.12233109  MaxEl  0.37252818
 <Mar01-2015> <03:35:05>   15  ErrMat   0.69289598  MaxEl  0.21031108
 <Mar01-2015> <03:35:07>   16  ErrMat   1.44626204  MaxEl  0.35165268
 <Mar01-2015> <03:35:08>   17  ErrMat   1.63586841  MaxEl  0.43964130
 <Mar01-2015> <03:35:09>   18  ErrMat   1.61498124  MaxEl  0.43949134
 <Mar01-2015> <03:35:10>   19  ErrMat   1.59181556  MaxEl  0.43464615
 <Mar01-2015> <03:35:11>   20  ErrMat   1.93493237  MaxEl  0.57769462
 <Mar01-2015> <03:35:12>   21  ErrMat   1.10467433  MaxEl -0.13567693
 <Mar01-2015> <03:35:14>   22  ErrMat   0.99773288  MaxEl -0.30288373
 <Mar01-2015> <03:35:16>   23  ErrMat   0.52212210  MaxEl -0.17552405
 <Mar01-2015> <03:35:17>   24  ErrMat   0.06556618  MaxEl -0.00946405
 <Mar01-2015> <03:35:18>   25  ErrMat   0.11703126  MaxEl  0.02426557
 <Mar01-2015> <03:35:19>   26  ErrMat   0.10226716  MaxEl  0.02343868
 <Mar01-2015> <03:35:20>   27  ErrMat   0.04979517  MaxEl  0.01239769
 <Mar01-2015> <03:35:21>   28  ErrMat   0.01168114  MaxEl  0.00319063
 <Mar01-2015> <03:35:22>   29  ErrMat   0.00832037  MaxEl  0.00191705
 <Mar01-2015> <03:35:23>   30  ErrMat   0.00300052  MaxEl -0.00085918
 <Mar01-2015> <03:35:24>   31  ErrMat   0.00177433  MaxEl -0.00053367
 <Mar01-2015> <03:35:25>   32  ErrMat   0.00118039  MaxEl -0.00036558
 <Mar01-2015> <03:35:26>   33  ErrMat   0.00053022  MaxEl -0.00020293
 <Mar01-2015> <03:35:28>   34  ErrMat   0.00021898  MaxEl -0.00010866
 <Mar01-2015> <03:35:29>   35  ErrMat   0.00013501  MaxEl -0.00007204
 <Mar01-2015> <03:35:29>   36  ErrMat   0.00012813  MaxEl -0.00005631
 <Mar01-2015> <03:35:31>   37  ErrMat   0.00013088  MaxEl -0.00004978
 <Mar01-2015> <03:35:32>   38  ErrMat   0.00006688  MaxEl -0.00003085
 <Mar01-2015> <03:35:32>   39  ErrMat   0.00003944  MaxEl -0.00001404
 <Mar01-2015> <03:35:34>   40  ErrMat   0.00004263  MaxEl -0.00000997
 <Mar01-2015> <03:35:34>   41  ErrMat   0.00004184  MaxEl -0.00001129
 <Mar01-2015> <03:35:36>   42  ErrMat   0.00001393  MaxEl  0.00000496
 <Mar01-2015> <03:35:37>   43  ErrMat   0.00001287  MaxEl  0.00000388
 <Mar01-2015> <03:35:38>   44  ErrMat   0.00000992  MaxEl  0.00000310
 <Mar01-2015> <03:35:38>   45  ErrMat   0.00000711  MaxEl  0.00000232
 <Mar01-2015> <03:35:39>   46  ErrMat   0.00000524  MaxEl  0.00000173
 <Mar01-2015> <03:35:40>   47  ErrMat   0.00000370  MaxEl  0.00000129
 <Mar01-2015> <03:35:41>   48  ErrMat   0.00000211  MaxEl  0.00000093
 <Mar01-2015> <03:35:41>  SCF converged
 <Mar01-2015> <03:35:42>   49  ErrMat   0.00000208  MaxEl  0.00000071
 <Mar01-2015> <03:35:42>  >>>> TOTEN
 <Mar01-2015> <03:35:44>  >>>> POPAN
 <Mar01-2015> <03:35:44>  >>>> DEBYE
 <Mar01-2015> <03:35:44>  >>>> AMETS
 <Mar01-2015> <03:35:44>   Bond Energy          -0.37074453 a.u.
 <Mar01-2015> <03:35:44>   Bond Energy         -10.08847191 eV
 <Mar01-2015> <03:35:44>   Bond Energy        -232.65       kcal/mol
 <Mar01-2015> <03:35:44>  >>>> POPUL
 <Mar01-2015> <03:35:46>  NORMAL TERMINATION
 <Mar01-2015> <03:35:54>  END
NORMAL TERMINATION
